/*--------------------------------*- C++ -*----------------------------------*\
| =========                 |                                                 |
| \\      /  F ield         | OpenFOAM: The Open Source CFD Toolbox           |
|  \\    /   O peration     | Version:  2406                                  |
|   \\  /    A nd           | Website:  www.openfoam.com                      |
|    \\/     M anipulation  |                                                 |
\*---------------------------------------------------------------------------*/
FoamFile
{
    version     2.0;
    format      ascii;
    arch        "LSB;label=32;scalar=64";
    class       volScalarField;
    location    "100";
    object      epsilon;
}
// * * * * * * * * * * * * * * * * * * * * * * * * * * * * * * * * * * * * * //

dimensions      [0 2 -3 0 0 0 0];

internalField   nonuniform List<scalar> 
12225
(
1085.6
2467.87
3645.42
4414.9
4812.3
4980.97
4975.89
4927.29
4841.78
4730.65
4622.45
4519.56
4428.14
4343.08
4272.82
4203.83
4156.29
4094.04
81.207
262.678
438.371
584.611
690.879
762.849
804.621
829.577
846.33
856.601
865.92
873.134
882.014
889.947
899.002
908.643
914.853
930.968
20.5547
51.215
83.4041
112.588
136.833
156.223
170.057
179.881
186.259
190.721
193.347
195.482
196.677
198.134
199.123
200.347
202.226
205.313
14.7501
21.8697
30.0047
38.5201
46.1922
53.0463
58.5966
63.2556
66.7267
69.6204
71.5769
73.2858
74.2706
75.2664
75.6682
76.2912
76.481
77.1881
14.3591
16.3321
18.4501
21.4932
24.4318
27.2633
29.7293
31.9786
33.8101
35.4683
36.7329
37.9089
38.727
39.5471
40.0334
40.5895
40.921
41.256
14.6442
14.9535
15.4256
16.4577
17.6065
18.8286
19.9674
21.0745
22.0303
22.9433
23.6842
24.4078
24.9478
25.5156
25.8805
26.3282
26.562
26.934
14.7183
14.6385
14.6734
14.8755
15.2169
15.6831
16.1619
16.6712
17.1368
17.6086
18.0078
18.4171
18.7343
19.0822
19.3152
19.6132
19.7671
20.0533
14.7545
14.5907
14.4691
14.4209
14.4417
14.5151
14.6473
14.8241
15.0016
15.2014
15.3781
15.5744
15.7307
15.9122
16.0372
16.2029
16.2911
16.464
14.7641
14.5919
14.4345
14.3029
14.2031
14.1371
14.0972
14.0986
14.1106
14.1412
14.1779
14.2341
14.2786
14.3416
14.3842
14.4473
14.484
14.5535
14.7656
14.5942
14.432
14.2829
14.1466
14.0296
13.9257
13.8438
13.7745
13.7225
13.6772
13.6482
13.6203
13.6061
13.5889
13.5831
13.5723
13.5808
14.7657
14.5945
14.4323
14.2806
14.137
14.0052
13.8817
13.7707
13.6681
13.5779
13.4941
13.4221
13.354
13.2974
13.2408
13.1974
13.1474
13.1178
14.7657
14.5943
14.4323
14.2801
14.1358
14.0008
13.8729
13.7541
13.6419
13.5388
13.4412
13.3526
13.268
13.1926
13.1189
13.0553
12.9899
12.9372
14.7657
14.5941
14.4321
14.2797
14.1353
13.9995
13.8708
13.7498
13.6349
13.5273
13.425
13.3297
13.2387
13.1546
13.0735
12.9995
12.9271
12.862
14.7657
14.594
14.4319
14.2792
14.1349
13.9988
13.8699
13.7482
13.6328
13.5238
13.4203
13.3226
13.2297
13.1421
13.0585
12.9799
12.9047
12.8341
14.7657
14.5938
14.4317
14.2789
14.1345
13.9981
13.8692
13.7472
13.6317
13.5223
13.4185
13.3202
13.2267
13.1382
13.0539
12.974
12.8978
12.8256
14.7657
14.5937
14.4316
14.2786
14.1341
13.9976
13.8685
13.7464
13.6307
13.5212
13.4172
13.3187
13.2251
13.1362
13.0517
12.9715
12.895
12.8224
14.7657
14.5937
14.4315
14.2784
14.1338
13.9972
13.868
13.7458
13.63
13.5203
13.4162
13.3175
13.2238
13.1348
13.0502
12.9697
12.8932
12.8204
14.7657
14.5937
14.4314
14.2783
14.1336
13.9969
13.8677
13.7453
13.6294
13.5196
13.4155
13.3167
13.2228
13.1337
13.049
12.9685
12.8918
12.8189
14.7657
14.5937
14.4314
14.2782
14.1336
13.9968
13.8675
13.7451
13.6292
13.5193
13.4151
13.3162
13.2224
13.1332
13.0484
12.9678
12.8912
12.8182
14.7657
14.5937
14.4315
14.2783
14.1337
13.997
13.8677
13.7453
13.6294
13.5195
13.4153
13.3164
13.2226
13.1334
13.0487
12.9681
12.8916
12.8186
14.7657
14.5937
14.4316
14.2785
14.1339
13.9972
13.868
13.7457
13.6299
13.5201
13.4161
13.3175
13.2239
13.135
13.0508
12.9706
12.8946
12.8222
14.7657
14.5938
14.4317
14.2786
14.1343
13.9977
13.869
13.7472
13.6325
13.5239
13.4218
13.325
13.2342
13.1481
13.0674
12.9905
12.919
12.8502
14.7657
14.5937
14.4319
14.2789
14.1361
14.002
13.8782
13.7628
13.6572
13.5594
13.4706
13.3882
13.314
13.2445
13.1828
13.1237
13.0728
13.0213
14.7644
14.5922
14.4335
14.2871
14.1628
14.0551
13.9689
13.8978
13.8459
13.8048
13.7784
13.7582
13.7484
13.7418
13.7418
13.7459
13.7521
13.7519
14.7478
14.5944
14.4764
14.4102
14.4235
14.4614
14.5555
14.6709
14.8173
14.9618
15.1245
15.2721
15.433
15.5696
15.7211
15.839
15.9799
16.0739
14.6504
14.7821
14.9369
15.3418
15.9229
16.5513
17.2346
17.8791
18.5393
19.1236
19.7152
20.2125
20.7235
21.1287
21.5631
21.8803
22.2502
22.4856
14.5719
16.1273
17.9726
20.4204
22.9246
25.2675
27.5497
29.5567
31.4962
33.1094
34.694
35.9234
37.1868
38.0778
39.0742
39.6865
40.4755
40.8671
16.544
25.88
36.7212
46.5575
55.8704
64.2818
72.1137
78.7579
84.8242
89.617
94.0454
97.2109
100.354
102.235
104.5
105.466
107.186
107.545
45.7965
105.215
164.45
217.257
267.882
313.505
353.737
386.197
413.339
433.785
450.75
462.873
473.079
479.979
487.035
490.548
496.399
497.757
632.343
1081.16
1534.75
1880.97
2183.45
2431.66
2631.41
2772.74
2875.85
2931.67
2968.56
2969.32
2962.24
2945.16
2917.14
2883.74
2847.85
2810.4
1.41967
1.98967
3.65844
5.31551
6.80992
8.10299
9.19184
10.0782
10.9385
11.7301
12.4874
13.2691
14.1554
15.2135
16.5363
18.2148
20.2924
22.7318
25.5435
28.7394
32.3746
36.4939
41.1982
46.5144
52.4763
59.0982
66.4271
74.4459
83.1635
92.5358
102.554
113.148
124.301
135.933
148.022
160.485
173.305
186.404
199.775
213.35
227.13
241.056
255.138
269.324
283.631
298.016
312.504
327.062
341.711
356.421
371.214
386.062
400.983
415.953
430.988
446.064
461.193
476.355
491.558
506.783
522.033
537.294
552.559
567.822
583.063
598.281
613.438
628.544
643.559
658.51
673.353
688.126
702.777
717.359
731.807
746.186
760.418
774.574
788.558
802.433
816.061
829.517
842.719
855.988
869.774
885.035
897.293
910.574
923.542
935.813
948.173
959.648
970.628
979.609
998.866
1004.81
1029.95
1035.82
1064.04
1076.51
1094.03
1107
1114.03
1112.88
1124.29
1150.47
1155.92
1167.84
1171.45
1196.72
1200.23
1207.65
1209.78
1206.69
1211.69
1225.28
1221.64
1224.7
1228.11
1233.84
1231.89
1227.7
1222.17
1214.44
1205.16
1194.15
1181.42
1167.02
1150.83
1132.83
1113.07
1091.63
1068.58
1044.06
1018.01
990.318
961.44
931.51
900.733
869.353
837.513
805.268
773.295
741.905
709.717
682.367
661.984
642.774
623.8
605.02
586.535
568.38
550.702
533.376
516.239
499.576
483.693
468.362
453.43
438.977
425.103
411.887
399.348
387.422
376.084
365.337
355.176
345.563
336.481
327.903
319.805
312.133
304.893
297.896
291.419
284.524
278.852
270.588
264.382
243.299
7.03685
4.42197
4.22961
4.50044
4.9592
5.49475
6.07901
6.71391
7.41954
8.19261
9.04648
10.0068
11.1082
12.3862
13.8754
15.6027
17.5818
19.814
22.3009
25.0439
28.0481
31.3169
34.8542
38.6535
42.7067
47.0017
51.5288
56.2709
61.2146
66.3214
71.5739
76.9511
82.4401
88.0237
93.6931
99.4356
105.247
111.118
117.046
123.025
129.054
135.13
141.252
147.419
153.632
159.891
166.201
172.568
178.98
185.43
191.918
198.442
205.001
211.591
218.212
224.859
231.531
238.224
244.935
251.659
258.395
265.136
271.879
278.619
285.349
292.066
298.76
305.428
312.061
318.658
325.212
331.722
338.181
344.59
350.939
357.229
363.449
369.601
375.672
381.666
387.571
393.407
399.189
404.973
410.78
416.53
421.903
427.337
432.634
437.807
442.929
447.933
452.94
458.002
463.684
468.498
474.671
479.334
485.604
489.993
494.478
497.992
500.669
503.122
507.223
511.923
514.633
518.789
521.774
526.103
527.396
528.061
530.729
530.115
534.56
534.758
535.648
538.196
538.832
538.524
538.798
537.256
535.504
532.964
529.907
526.255
522.009
517.157
511.675
505.529
498.73
491.233
483.057
474.223
464.736
454.594
443.901
432.709
421.082
409.093
396.804
384.262
371.595
358.914
346.024
333.732
322.71
312.207
301.93
291.836
281.949
272.293
262.905
253.785
244.8
235.933
227.385
219.147
211.188
203.519
196.155
189.123
182.438
176.086
170.054
164.338
158.933
153.826
149.007
144.463
140.186
136.155
132.376
128.786
125.493
122.245
119.47
116.954
115.938
116.638
14.574
7.52641
6.33385
6.17318
6.3619
6.73534
7.23327
7.8368
8.54969
9.38184
10.3492
11.4719
12.7716
14.268
15.976
17.9031
20.0502
22.4117
24.9795
27.7451
30.7007
33.8384
37.1506
40.628
44.2619
48.0446
51.9722
55.9897
60.0631
64.2249
68.4786
72.8192
77.2407
81.7354
86.2981
90.9241
95.6121
100.362
105.168
110.027
114.937
119.896
124.903
129.958
135.059
140.205
145.398
150.634
155.913
161.231
166.587
171.98
177.41
182.872
188.367
193.892
199.444
205.021
210.621
216.24
221.874
227.52
233.174
238.832
244.488
250.137
255.775
261.394
266.991
272.559
278.093
283.587
289.036
294.433
299.773
305.05
310.257
315.39
320.443
325.415
330.304
335.115
339.85
344.512
349.089
353.549
357.864
362.093
366.211
370.228
374.16
378.008
381.799
385.555
389.309
392.884
396.53
399.854
403.218
406.085
408.784
411.17
413.383
415.655
418.221
420.733
422.899
425.161
427.144
429.07
430.298
431.437
432.776
433.674
435.369
435.99
436.567
437.048
437.068
436.797
436.357
435.295
433.935
432.108
429.866
427.172
424.01
420.356
416.19
411.487
406.24
400.434
394.078
387.181
379.755
371.821
363.427
354.615
345.433
335.93
326.153
316.147
305.978
295.72
285.421
275.378
265.839
256.639
247.657
238.865
230.275
221.905
213.776
205.895
198.229
190.771
183.575
176.586
169.814
163.292
157.011
150.996
145.258
139.793
134.596
129.663
124.992
120.573
116.398
112.46
108.751
105.258
101.983
98.8961
96.0422
93.3285
90.9474
88.7099
87.2468
87.2789
22.7968
10.7483
8.70175
8.2274
8.26926
8.57631
9.06166
9.6948
10.4701
11.3941
12.4798
13.7426
15.1972
16.854
18.7177
20.7863
23.0518
25.5026
28.1253
30.9072
33.8368
36.9045
40.1017
43.4201
46.8516
50.3859
54.0089
57.7335
61.5725
65.5083
69.5355
73.6526
77.8533
82.1268
86.4666
90.8653
95.3129
99.83
104.411
109.055
113.759
118.521
123.339
128.213
133.141
138.122
143.154
148.235
153.365
158.542
163.764
169.031
174.34
179.691
185.082
190.511
195.975
201.473
207.002
212.559
218.14
223.743
229.362
234.993
240.632
246.272
251.909
257.536
263.147
268.735
274.293
279.813
285.289
290.711
296.073
301.366
306.583
311.715
316.759
321.708
326.56
331.312
335.961
340.501
344.92
349.206
353.351
357.367
361.251
365.008
368.641
372.153
375.551
378.837
382.008
385.036
387.945
390.668
393.241
395.574
397.729
399.712
401.591
403.448
405.315
407.102
408.746
410.305
411.692
412.916
413.881
414.749
415.561
416.227
416.937
417.157
417.121
417.048
416.748
416.179
415.352
414.155
412.642
410.755
408.486
405.808
402.696
399.125
395.075
390.523
385.46
379.873
373.757
367.128
360.005
352.409
344.377
335.946
327.158
318.058
308.69
299.113
289.4
279.63
269.884
260.302
251
241.949
233.112
224.48
216.064
207.88
199.946
192.268
184.84
177.662
170.749
164.089
157.678
151.52
145.56
139.838
134.362
129.129
124.14
119.396
114.893
110.626
106.588
102.774
99.1778
95.7911
92.6103
89.623
86.8471
84.2475
81.9176
79.7876
78.1242
77.4982
31.1068
14.141
11.2284
10.4616
10.3807
10.6417
11.1276
11.7917
12.6196
13.6119
14.7765
16.1235
17.6619
19.3971
21.3288
23.4512
25.7543
28.225
30.8498
33.616
36.5134
39.5333
42.6695
45.9165
49.2705
52.7276
56.2857
59.9462
63.7101
67.5728
71.5299
75.5759
79.7084
83.9271
88.2302
92.6159
97.0851
101.635
106.261
110.962
115.735
120.579
125.491
130.469
135.513
140.619
145.787
151.016
156.303
161.647
167.048
172.503
178.012
183.574
189.185
194.846
200.554
206.306
212.101
217.936
223.806
229.709
235.639
241.593
247.565
253.549
259.539
265.527
271.506
277.468
283.404
289.306
295.163
300.966
306.705
312.369
317.948
323.434
328.817
334.091
339.249
344.286
349.193
353.963
358.585
363.049
367.352
371.492
375.468
379.281
382.932
386.42
389.746
392.909
395.909
398.738
401.398
403.875
406.17
408.267
410.185
411.943
413.576
415.117
416.57
417.906
419.103
420.168
421.076
421.822
422.382
422.847
423.172
423.257
423.162
422.884
422.454
421.867
421.07
420.033
418.735
417.137
415.229
412.982
410.373
407.376
403.964
400.112
395.797
391.001
385.709
379.912
373.606
366.804
359.518
351.772
343.594
335.02
326.089
316.849
307.357
297.682
287.897
278.078
268.303
258.662
249.224
240.002
230.992
222.198
213.635
205.319
197.265
189.482
181.972
174.738
167.783
161.104
154.697
148.556
142.662
137.017
131.599
126.402
121.435
116.699
112.193
107.913
103.856
100.019
96.3949
92.9801
89.7672
86.7519
83.9427
81.3274
78.9541
76.8099
75.0229
73.9118
38.9898
17.5031
13.7793
12.7424
12.5549
12.7761
13.2617
13.9484
14.8121
15.8468
17.0549
18.442
20.013
21.7703
23.7123
25.8328
28.1227
30.5707
33.1655
35.8965
38.7553
41.7353
44.832
48.0422
51.3639
54.796
58.338
61.9901
65.7517
69.6215
73.5974
77.6772
81.8594
86.1429
90.5265
95.0087
99.5883
104.263
109.031
113.888
118.834
123.865
128.98
134.176
139.452
144.805
150.234
155.736
161.312
166.958
172.674
178.459
184.312
190.23
196.213
202.26
208.368
214.535
220.758
227.036
233.365
239.74
246.158
252.612
259.098
265.609
272.137
278.674
285.212
291.741
298.251
304.73
311.168
317.551
323.868
330.106
336.253
342.295
348.223
354.025
359.691
365.213
370.58
375.781
380.806
385.646
390.292
394.741
398.988
403.033
406.873
410.506
413.933
417.151
420.162
422.966
425.562
427.948
430.126
432.096
433.867
435.452
436.872
438.141
439.263
440.23
441.035
441.666
442.142
442.454
442.526
442.374
442.114
441.667
441.064
440.269
439.295
438.135
436.762
435.155
433.291
431.147
428.704
425.936
422.82
419.329
415.436
411.118
406.351
401.115
395.396
389.184
382.475
375.276
367.599
359.464
350.897
341.934
332.621
323.014
313.176
303.178
293.091
282.988
272.937
263.01
253.258
243.707
234.371
225.265
216.405
207.809
199.492
191.463
183.728
176.29
169.15
162.306
155.753
149.486
143.491
137.763
132.287
127.054
122.038
117.239
112.66
108.3
104.159
100.235
96.5249
93.026
89.7313
86.6413
83.7582
81.0792
78.6312
76.422
74.5249
73.0618
46.2559
20.7179
16.257
14.9718
14.6867
14.8694
15.3499
16.0487
16.9324
17.9882
19.2137
20.6105
22.1811
23.9263
25.8445
27.9313
30.1797
32.5814
35.128
37.8115
40.6258
43.5658
46.6285
49.8121
53.1155
56.5387
60.0818
63.7451
67.5288
71.4325
75.4558
79.5978
83.8579
88.2351
92.7286
97.3372
102.059
106.893
111.837
116.889
122.045
127.305
132.665
138.124
143.679
149.328
155.07
160.902
166.823
172.833
178.929
185.11
191.375
197.724
204.154
210.665
217.254
223.921
230.663
237.476
244.358
251.304
258.31
265.371
272.479
279.629
286.81
294.016
301.234
308.454
315.665
322.853
330.005
337.105
344.14
351.093
357.95
364.695
371.313
377.791
384.115
390.271
396.247
402.03
407.608
412.968
418.101
422.999
427.657
432.07
436.234
440.147
443.807
447.213
450.367
453.269
455.921
458.326
460.485
462.403
464.087
465.546
466.793
467.835
468.676
469.312
469.76
469.959
469.916
469.709
469.27
468.636
467.814
466.797
465.588
464.175
462.559
460.732
458.679
456.385
453.834
451.007
447.886
444.448
440.672
436.534
432.01
427.074
421.705
415.884
409.594
402.826
395.574
387.841
379.638
370.983
361.905
352.446
342.656
332.592
322.32
311.907
301.425
290.939
280.516
270.214
260.081
250.148
240.437
230.968
221.761
212.834
204.2
195.872
187.857
180.156
172.771
165.7
158.937
152.476
146.307
140.421
134.807
129.453
124.342
119.456
114.775
110.304
106.046
102.006
98.1821
94.5724
91.1733
87.9825
85.0017
82.2321
79.6896
77.3872
75.374
73.6425
53.3303
23.8276
18.6267
17.0869
16.6993
16.8379
17.3059
18.0074
18.899
19.9617
21.1885
22.5776
24.1298
25.8452
27.7232
29.7609
31.9543
34.2979
36.7864
39.4144
42.1778
45.0732
48.0987
51.2534
54.5371
57.9501
61.4932
65.1673
68.9731
72.9113
76.9823
81.1862
85.5231
89.9929
94.5951
99.3288
104.193
109.187
114.308
119.556
124.927
130.419
136.031
141.761
147.606
153.564
159.634
165.814
172.102
178.497
184.998
191.605
198.315
205.129
212.045
219.062
226.179
233.393
240.704
248.108
255.602
263.182
270.843
278.58
286.384
294.25
302.166
310.124
318.111
326.116
334.123
342.119
350.087
358.011
365.872
373.653
381.335
388.9
396.328
403.603
410.706
417.621
424.332
430.822
437.076
443.08
448.821
454.289
459.474
464.371
468.974
473.278
477.281
480.981
484.38
487.478
490.278
492.783
494.997
496.924
498.57
499.945
501.056
501.91
502.51
502.804
502.829
502.61
502.149
501.446
500.49
499.294
497.867
496.207
494.315
492.19
489.829
487.227
484.378
481.27
477.895
474.239
470.289
466.027
461.435
456.494
451.182
445.479
439.363
432.817
425.826
418.377
410.466
402.094
393.273
384.024
374.38
364.382
354.079
343.53
332.796
321.944
311.04
300.147
289.328
278.636
268.116
257.8
247.716
237.886
228.33
219.068
210.115
201.481
193.175
185.199
177.554
170.238
163.244
156.566
150.196
144.123
138.337
132.826
127.575
122.568
117.778
113.183
108.798
104.63
100.681
96.9495
93.434
90.1322
87.0445
84.1729
81.5272
79.1193
76.9846
75.0417
62.0593
27.1005
20.9228
19.0591
18.5419
18.622
19.0677
19.7634
20.655
21.7168
22.9371
24.3114
25.8386
27.5187
29.3514
31.3359
33.4702
35.7517
38.1776
40.745
43.4515
46.2956
49.2763
52.3936
55.6479
59.0403
62.5721
66.2449
70.0601
74.0192
78.1234
82.3737
86.771
91.3159
96.0087
100.849
105.837
110.972
116.253
121.679
127.247
132.958
138.808
144.796
150.92
157.179
163.571
170.094
176.748
183.531
190.443
197.482
204.648
211.941
219.359
226.902
234.57
242.36
250.27
258.299
266.443
274.699
283.06
291.521
300.075
308.712
317.424
326.199
335.023
343.883
352.763
361.646
370.513
379.345
388.122
396.823
405.424
413.905
422.243
430.415
438.401
446.18
453.73
461.033
468.069
474.821
481.274
487.413
493.228
498.707
503.845
508.635
513.072
517.155
520.883
524.258
527.28
529.954
532.284
534.273
535.928
537.258
538.272
538.959
539.289
539.27
538.967
538.361
537.453
536.246
534.739
532.94
530.853
528.484
525.834
522.904
519.696
516.208
512.438
508.384
504.041
499.404
494.464
489.212
483.637
477.725
471.46
464.828
457.812
450.396
442.568
434.318
425.643
416.548
407.045
397.159
386.92
376.368
365.55
354.52
343.334
332.056
320.746
309.466
298.274
287.221
276.347
265.687
255.268
245.113
235.244
225.68
216.434
207.521
198.947
190.715
182.826
175.276
168.059
161.17
154.6
148.339
142.375
136.697
131.291
126.143
121.231
116.512
111.999
107.703
103.628
99.7757
96.1434
92.7293
89.5333
86.5569
83.8059
81.2891
79.0321
76.9143
70.3567
30.1343
23.0013
20.8103
20.1568
20.1724
20.5899
21.2749
22.1627
23.2209
24.4334
25.7926
27.2959
28.9425
30.7327
32.6667
34.7442
36.9648
39.3278
41.8322
44.4776
47.2637
50.1909
53.2601
56.4726
59.8302
63.3351
66.9893
70.7954
74.7556
78.872
83.1465
87.5805
92.1755
96.9327
101.853
106.937
112.185
117.597
123.174
128.914
134.816
140.879
147.103
153.486
160.027
166.724
173.577
180.584
187.746
195.061
202.53
210.151
217.925
225.852
233.931
242.162
250.543
259.073
267.749
276.57
285.529
294.624
303.846
313.189
322.643
332.196
341.838
351.553
361.325
371.137
380.97
390.802
400.612
410.376
420.069
429.667
439.142
448.468
457.621
466.572
475.297
483.772
491.973
499.876
507.462
514.709
521.602
528.125
534.267
540.017
545.367
550.312
554.847
558.972
562.685
565.99
568.888
571.382
573.478
575.181
576.5
577.44
577.952
578.062
577.801
577.173
576.178
574.818
573.094
571.007
568.564
565.77
562.629
559.147
555.326
551.171
546.685
541.871
536.734
531.274
525.496
519.4
512.986
506.249
499.187
491.793
484.061
475.98
467.542
458.741
449.574
440.041
430.15
419.915
409.358
398.511
387.409
376.091
364.605
353.002
341.339
329.672
318.055
306.547
295.194
284.033
273.095
262.408
251.994
241.874
232.066
222.584
213.441
204.647
196.202
188.107
180.358
172.949
165.874
159.126
152.694
146.566
140.732
135.178
129.89
124.848
120.007
115.372
110.957
106.766
102.801
99.059
95.5391
92.2398
89.1623
86.3092
83.6861
81.3108
79.0452
77.5766
32.7544
24.7742
22.2861
21.503
21.4591
21.8449
22.5174
23.4008
24.4562
25.6632
27.0115
28.4963
30.1162
31.8712
33.7619
35.7893
37.9542
40.2575
42.7001
45.2828
48.007
50.8741
53.8861
57.0456
60.355
63.8176
67.4367
71.2155
75.1575
79.2657
83.5427
87.99
92.6097
97.4041
102.375
107.525
112.856
118.37
124.068
129.95
136.017
142.268
148.703
155.322
162.124
169.108
176.275
183.623
191.153
198.864
206.757
214.832
223.089
231.529
240.15
248.954
257.94
267.105
276.448
285.967
295.656
305.511
315.526
325.69
335.996
346.43
356.979
367.627
378.357
389.149
399.98
410.829
421.669
432.474
443.215
453.864
464.391
474.765
484.955
494.931
504.664
514.123
523.281
532.111
540.587
548.687
556.39
563.677
570.534
576.947
582.907
588.406
593.439
598.003
602.097
605.721
608.878
611.57
613.801
615.576
616.903
617.772
618.157
618.088
617.577
616.628
615.241
613.417
611.156
608.461
605.335
601.784
597.811
593.424
588.626
583.427
577.833
571.853
565.495
558.772
551.694
544.273
536.517
528.438
520.041
511.336
502.325
493.013
483.402
473.495
463.3
452.82
442.065
431.051
419.798
408.336
396.7
384.912
373.013
361.049
349.065
337.112
325.234
313.493
301.929
290.572
279.45
268.586
258.002
247.717
237.746
228.104
218.805
209.858
201.264
193.021
185.125
177.571
170.354
163.466
156.897
150.636
144.671
138.988
133.576
128.412
123.456
118.714
114.196
109.905
105.842
102.005
98.3911
94.9995
91.8298
88.8825
86.1605
83.6755
81.2851
83.4654
34.8806
26.1954
23.4535
22.5548
22.4579
22.8181
23.4806
24.362
25.4179
26.6242
27.968
29.4426
31.0451
32.775
34.6329
36.6202
38.7385
40.9898
43.376
45.8994
48.5625
51.368
54.3191
57.4194
60.6728
64.0837
67.6565
71.3962
75.3075
79.3953
83.6647
88.1103
92.736
97.5468
102.546
107.733
113.12
118.71
124.506
130.509
136.72
143.141
149.771
156.611
163.662
170.924
178.397
186.081
193.977
202.086
210.407
218.942
227.691
236.654
245.833
255.227
264.836
274.658
284.692
294.935
305.381
316.027
326.863
337.882
349.072
360.421
371.912
383.529
395.252
407.059
418.925
430.825
442.73
454.611
466.434
478.169
489.78
501.232
512.491
523.522
534.29
544.762
554.904
564.686
574.078
583.053
591.587
599.658
607.249
614.343
620.928
626.995
632.538
637.553
642.037
645.99
649.413
652.308
654.678
656.527
657.858
658.663
658.934
658.682
657.909
656.624
654.826
652.514
649.687
646.345
642.491
638.127
633.259
627.892
622.034
615.694
608.882
601.613
593.901
585.767
577.232
568.317
559.044
549.438
539.525
529.326
518.863
508.16
497.229
486.088
474.759
463.247
451.564
439.729
427.761
415.686
403.53
391.306
379.052
366.801
354.591
342.453
330.421
318.556
306.894
295.456
284.264
273.337
262.694
252.35
242.317
232.608
223.245
214.232
205.569
197.253
189.279
181.642
174.339
167.364
160.705
154.353
148.293
142.515
137.004
131.737
126.687
121.861
117.264
112.896
108.756
104.843
101.153
97.6841
94.4359
91.4068
88.5976
86.0148
83.5212
87.8691
36.4708
27.2461
24.3048
23.3127
23.1731
23.514
24.1708
25.054
26.1152
27.3273
28.6747
30.1488
31.7455
33.4632
35.3021
37.2633
39.3489
41.5612
43.903
46.3776
48.9885
51.7396
54.6353
57.6806
60.8808
64.2414
67.7686
71.4695
75.3508
79.4171
83.6742
88.1092
92.7337
97.5539
102.574
107.793
113.233
118.895
124.782
130.901
137.254
143.843
150.671
157.737
165.044
172.593
180.386
188.422
196.702
205.229
214.001
223.022
232.291
241.809
251.578
261.596
271.863
282.379
293.14
304.144
315.386
326.859
338.555
350.464
362.574
374.869
387.334
399.949
412.691
425.536
438.458
451.426
464.41
477.377
490.29
503.113
515.808
528.337
540.659
552.736
564.529
575.998
587.108
597.824
608.111
617.939
627.28
636.11
644.407
652.154
659.336
665.942
671.964
677.399
682.242
686.493
690.153
693.221
695.701
697.594
698.904
699.628
699.754
699.28
698.203
696.541
694.29
691.443
687.999
683.953
679.307
674.061
668.221
661.789
654.776
647.189
639.046
630.361
621.16
611.467
601.316
590.741
579.78
568.474
556.87
545.008
532.932
520.689
508.302
495.806
483.174
470.472
457.742
445.007
432.289
419.615
407.015
394.47
381.974
369.553
357.231
345.028
332.957
321.118
309.514
298.15
287.041
276.202
265.645
255.381
245.419
235.764
226.442
217.465
208.829
200.528
192.558
184.913
177.595
170.596
163.906
157.514
151.407
145.574
140
134.662
129.554
124.677
120.031
115.614
111.424
107.459
103.714
100.189
96.8798
93.7851
90.9038
88.2386
85.6632
90.7435
37.5163
27.9288
24.8493
23.791
23.622
23.9521
24.6095
25.5007
26.5744
27.8008
29.1624
30.6491
32.255
33.9775
35.8161
37.7714
39.8452
42.0401
44.3594
46.8067
49.3866
52.1042
54.9651
57.9756
61.1431
64.4738
67.9736
71.6501
75.5104
79.5595
83.8009
88.2367
92.8751
97.7233
102.788
108.077
113.6
119.364
125.378
131.647
138.175
144.966
152.025
159.354
166.958
174.839
182.998
191.436
200.155
209.155
218.437
228.003
237.853
247.988
258.408
269.114
280.102
291.372
302.921
314.745
326.837
339.189
351.793
364.635
377.703
390.979
404.444
418.076
431.851
445.741
459.716
473.745
487.792
501.821
515.793
529.668
543.404
556.958
570.287
583.348
596.098
608.495
620.498
632.069
643.171
653.77
663.834
673.337
682.255
690.568
698.26
705.318
711.734
717.503
722.622
727.089
730.904
734.068
736.581
738.446
739.665
740.235
740.146
739.371
737.917
735.804
733.021
729.56
725.413
720.575
715.044
708.819
701.903
694.298
686.013
677.06
667.455
657.221
646.386
634.987
623.069
610.679
597.869
584.701
571.254
557.579
543.726
529.672
515.568
501.5
487.608
473.875
460.259
446.782
433.458
420.31
407.389
394.566
381.898
369.4
357.082
344.944
332.963
321.258
309.804
298.606
287.672
277.011
266.632
256.542
246.745
237.232
228.08
219.264
210.771
202.596
194.731
187.168
179.913
172.965
166.311
159.941
153.842
148.002
142.406
137.051
131.932
127.045
122.387
117.955
113.746
109.757
105.985
102.425
99.0766
95.9357
93.0007
90.2711
87.6357
91.9809
38.0028
28.2547
25.1096
24.0191
23.837
24.1683
24.8368
25.7466
26.8447
28.0996
29.4923
31.0109
32.6486
34.4015
36.2682
38.2488
40.3447
42.5583
44.8928
47.3524
49.9423
52.6686
55.5385
58.5575
61.7321
65.0699
68.5786
72.267
76.143
80.2146
84.489
88.9743
93.6794
98.6138
103.787
109.208
114.887
120.833
127.055
133.559
140.353
147.442
154.832
162.525
170.527
178.84
187.469
196.416
205.681
215.264
225.167
235.389
245.931
256.792
267.972
279.469
291.281
303.404
315.833
328.561
341.582
354.883
368.455
382.281
396.346
410.629
425.109
439.762
454.558
469.469
484.461
499.5
514.547
529.563
544.506
559.333
573.999
588.458
602.664
616.572
630.135
643.308
656.049
668.316
680.07
691.275
701.897
711.907
721.281
729.996
738.034
745.384
752.035
757.983
763.226
767.76
771.587
774.705
777.115
778.82
779.818
780.103
779.68
778.464
776.515
773.827
770.386
766.181
761.203
755.443
748.894
741.556
733.426
724.508
714.811
704.347
693.133
681.201
668.583
655.324
641.49
627.142
612.342
597.124
581.536
565.755
549.904
534.239
518.679
503.306
488.256
473.362
458.747
444.448
430.479
416.846
403.547
390.548
377.839
365.413
353.257
341.362
329.717
318.341
307.233
296.391
285.817
275.513
265.483
255.73
246.253
237.034
228.14
219.557
211.279
203.299
195.609
188.192
181.091
174.28
167.742
161.466
155.439
149.649
144.101
138.792
133.716
128.866
124.238
119.829
115.637
111.657
107.884
104.318
100.954
97.7889
94.8213
92.0475
89.3746
91.9204
37.987
28.2473
25.1081
24.0274
23.864
24.2246
24.9253
25.876
27.0235
28.3353
29.7912
31.3782
33.0885
34.9173
36.8625
38.924
41.1025
43.3999
45.8194
48.3649
51.0413
53.8543
56.8101
59.9164
63.1815
66.6145
70.225
74.0232
78.0196
82.2248
86.6496
91.3055
96.2039
101.357
106.776
112.473
118.46
124.746
131.341
138.255
145.494
153.068
160.98
169.237
177.842
186.796
196.103
205.767
215.787
226.163
236.894
247.979
259.416
271.203
283.336
295.811
308.622
321.763
335.224
348.997
363.07
377.427
392.055
406.933
422.042
437.359
452.857
468.51
484.286
500.153
516.074
532.013
547.929
563.782
579.527
595.12
610.513
625.661
640.514
655.027
669.151
682.842
696.055
708.748
720.881
732.417
743.323
753.568
763.126
771.975
780.096
787.476
794.106
799.982
805.1
809.461
813.063
815.905
817.988
819.314
819.879
819.682
818.674
816.826
814.173
810.7
806.392
801.234
795.213
788.317
780.538
771.872
762.315
751.869
740.545
728.356
715.323
701.488
686.887
671.565
655.508
638.827
621.669
604.254
586.746
569.164
551.722
534.251
516.983
500.046
483.532
467.467
451.901
436.861
422.354
408.373
394.896
381.888
369.316
357.146
345.346
333.885
322.737
311.888
301.324
291.033
281.008
271.243
261.739
252.492
243.5
234.761
226.293
218.099
210.177
202.52
195.124
187.973
181.092
174.475
168.104
161.973
156.078
150.409
144.985
139.791
134.818
130.06
125.509
121.166
117.028
113.09
109.35
105.805
102.452
99.2869
96.3094
93.5129
90.825
90.517
37.5505
27.9837
24.9215
23.9012
23.8034
24.2375
25.0177
26.06
27.3109
28.7385
30.3226
32.0499
33.912
35.9037
38.022
40.2656
42.635
45.1323
47.7604
50.5234
53.4266
56.4761
59.6788
63.0434
66.5796
70.2977
74.2093
78.3264
82.6618
87.2289
92.0412
97.113
102.459
108.092
114.029
120.282
126.865
133.789
141.064
148.7
156.705
165.087
173.854
183.008
192.55
202.482
212.801
223.506
234.595
246.067
257.919
270.146
282.742
295.702
309.016
322.676
336.67
350.987
365.613
380.532
395.726
411.176
426.86
442.755
458.837
475.078
491.45
507.921
524.459
541.03
557.598
574.124
590.57
606.894
623.054
639.005
654.702
670.099
685.151
699.81
714.032
727.774
740.992
753.647
765.699
777.113
787.857
797.902
807.22
815.791
823.594
830.617
836.85
842.29
846.936
850.785
853.839
856.09
857.547
858.208
858.065
857.095
855.229
852.495
848.881
844.369
838.943
832.583
825.275
817.004
807.759
797.533
786.323
774.129
760.969
746.852
731.798
715.762
698.837
681.128
662.857
644.117
624.968
605.647
586.016
566.337
546.789
527.473
508.544
490.138
472.361
455.278
438.932
423.345
408.511
394.405
380.987
368.205
356.001
344.317
333.097
322.289
311.846
301.731
291.914
282.371
273.084
264.042
255.237
246.663
238.313
230.185
222.286
214.619
207.183
199.972
192.987
186.223
179.675
173.353
167.255
161.377
155.712
150.253
145.013
139.985
135.162
130.538
126.109
121.878
117.838
113.984
110.313
106.821
103.509
100.372
97.4109
94.6161
91.9382
87.8493
36.6306
27.4445
24.5736
23.7022
23.7505
24.3307
25.2633
26.4731
27.9107
29.5456
31.3585
33.3367
35.472
37.7593
40.1958
42.7804
45.5136
48.3974
51.4349
54.6307
57.99
61.5196
65.2271
69.1218
73.2144
77.5167
82.0414
86.8024
91.8142
97.0919
102.651
108.509
114.68
121.183
128.033
135.247
142.839
150.817
159.191
167.968
177.153
186.752
196.762
207.187
218.027
229.28
240.94
253.002
265.459
278.304
291.527
305.118
319.066
333.357
347.978
362.91
378.138
393.642
409.4
425.391
441.589
457.97
474.506
491.17
507.932
524.765
541.636
558.516
575.373
592.174
608.885
625.473
641.902
658.134
674.132
689.857
705.266
720.319
734.974
749.19
762.926
776.143