/*--------------------------------*- C++ -*----------------------------------*\
| =========                 |                                                 |
| \\      /  F ield         | OpenFOAM: The Open Source CFD Toolbox           |
|  \\    /   O peration     | Version:  2406                                  |
|   \\  /    A nd           | Website:  www.openfoam.com                      |
|    \\/     M anipulation  |                                                 |
\*---------------------------------------------------------------------------*/
FoamFile
{
    version     2.0;
    format      ascii;
    arch        "LSB;label=32;scalar=64";
    class       volScalarField;
    location    "100";
    object      k;
}
// * * * * * * * * * * * * * * * * * * * * * * * * * * * * * * * * * * * * * //

dimensions      [0 2 -2 0 0 0 0];

internalField   nonuniform List<scalar> 
12225
(
0.571465
0.98767
1.28116
1.45561
1.54171
1.57753
1.5758
1.56742
1.54737
1.52406
1.50086
1.47854
1.45855
1.43981
1.42425
1.40888
1.39828
1.38422
0.438464
0.496983
0.521822
0.535034
0.542695
0.547522
0.550013
0.552289
0.555746
0.559437
0.565237
0.570995
0.579127
0.586577
0.59617
0.604677
0.614405
0.623898
0.387563
0.417493
0.42419
0.421532
0.41498
0.405045
0.393744
0.382872
0.371888
0.362464
0.353217
0.346113
0.338966
0.334298
0.329091
0.326602
0.322968
0.322129
0.376178
0.384809
0.388127
0.387418
0.385424
0.381163
0.375661
0.369585
0.363103
0.356586
0.350106
0.343829
0.337826
0.332098
0.32679
0.321723
0.317182
0.31277
0.374177
0.37537
0.376398
0.375932
0.374797
0.37252
0.36961
0.366148
0.362483
0.358485
0.354561
0.350392
0.346533
0.342416
0.338815
0.334868
0.331641
0.327919
0.373737
0.372542
0.371997
0.371084
0.369916
0.368273
0.36634
0.364039
0.361644
0.358977
0.35638
0.353551
0.350928
0.348069
0.345541
0.342733
0.340379
0.337673
0.373769
0.371725
0.37023
0.368833
0.367464
0.365944
0.364347
0.362557
0.360738
0.358757
0.35682
0.354742
0.352781
0.350682
0.348766
0.346696
0.344879
0.342865
0.373818
0.371563
0.36962
0.367861
0.366251
0.364666
0.363124
0.361526
0.359949
0.358304
0.356702
0.355035
0.35344
0.351783
0.350229
0.348608
0.347126
0.345551
0.373832
0.371554
0.369457
0.367511
0.365723
0.364027
0.362431
0.360865
0.359359
0.357857
0.356408
0.354952
0.353551
0.352142
0.350799
0.349442
0.348168
0.346865
0.373832
0.37156
0.369425
0.36741
0.36553
0.363754
0.362089
0.360496
0.358985
0.357521
0.356122
0.354756
0.353447
0.352161
0.350932
0.34972
0.348567
0.347423
0.37383
0.371561
0.369417
0.367385
0.365469
0.363654
0.361944
0.36032
0.358783
0.357314
0.355918
0.354577
0.353297
0.352063
0.350883
0.349741
0.348648
0.347589
0.373828
0.371559
0.369412
0.367376
0.365449
0.363621
0.361891
0.36025
0.358694
0.357214
0.355808
0.354466
0.353189
0.351966
0.350799
0.349681
0.34861
0.347583
0.373827
0.371557
0.369407
0.367369
0.365437
0.363604
0.361866
0.360216
0.358649
0.35716
0.355744
0.354396
0.353114
0.351891
0.350724
0.349611
0.348547
0.347531
0.373827
0.371555
0.369403
0.367363
0.365428
0.363592
0.36185
0.360194
0.358622
0.357126
0.355704
0.35435
0.353062
0.351834
0.350664
0.349548
0.348482
0.347467
0.373826
0.371553
0.369399
0.367357
0.36542
0.363582
0.361836
0.360178
0.358602
0.357102
0.355676
0.354318
0.353025
0.351793
0.350619
0.349499
0.34843
0.347411
0.373826
0.371552
0.369396
0.367352
0.365413
0.363573
0.361825
0.360164
0.358585
0.357083
0.355654
0.354293
0.352997
0.351762
0.350584
0.349461
0.348389
0.347367
0.373825
0.371551
0.369394
0.367349
0.365408
0.363566
0.361816
0.360153
0.358572
0.357068
0.355636
0.354273
0.352974
0.351736
0.350556
0.349431
0.348357
0.347332
0.373825
0.371551
0.369393
0.367347
0.365405
0.363561
0.36181
0.360145
0.358563
0.357056
0.355623
0.354258
0.352957
0.351718
0.350536
0.349409
0.348333
0.347307
0.373825
0.371551
0.369393
0.367346
0.365404
0.36356
0.361808
0.360142
0.358559
0.357051
0.355617
0.354251
0.352949
0.351708
0.350526
0.349397
0.348321
0.347294
0.373826
0.371551
0.369394
0.367348
0.365406
0.363562
0.36181
0.360145
0.358562
0.357054
0.35562
0.354254
0.352953
0.351712
0.35053
0.349401
0.348326
0.347298
0.373826
0.371552
0.369396
0.367351
0.365409
0.363567
0.361816
0.360152
0.358569
0.357064
0.35563
0.354266
0.352966
0.351727
0.350546
0.34942
0.348345
0.347319
0.373826
0.371553
0.369398
0.367355
0.365415
0.363575
0.361827
0.360167
0.35859
0.35709
0.355662
0.354303
0.353009
0.351775
0.350599
0.349475
0.348404
0.347379
0.373826
0.371555
0.369401
0.367363
0.365431
0.363605
0.361874
0.360236
0.35868
0.357201
0.355792
0.354448
0.353164
0.351935
0.350758
0.34963
0.348548
0.347508
0.373827
0.371555
0.369413
0.367418
0.365544
0.363793
0.362137
0.360571
0.359069
0.35763
0.356238
0.354893
0.353585
0.352319
0.351086
0.34989
0.348724
0.347596
0.373819
0.371564
0.369582
0.367845
0.366223
0.364711
0.363218
0.361752
0.360265
0.358785
0.357286
0.355797
0.354303
0.35283
0.351357
0.34992
0.34849
0.347105
0.373767
0.371946
0.370917
0.369978
0.368912
0.367766
0.366326
0.364735
0.362932
0.361059
0.359057
0.35705
0.354967
0.35292
0.35084
0.34882
0.346786
0.344833
0.374093
0.3752
0.37726
0.377562
0.377091
0.375808
0.373489
0.370864
0.367803
0.364685
0.361328
0.358024
0.354601
0.351286
0.347919
0.344694
0.341468
0.338407
0.377677
0.394075
0.402941
0.402351
0.400305
0.396043
0.390666
0.385163
0.379135
0.373299
0.367224
0.361471
0.355723
0.350301
0.345132
0.340195
0.335731
0.331325
0.405778
0.438979
0.451189
0.455818
0.459119
0.46228
0.464993
0.467261
0.469263
0.470891
0.472549
0.473993
0.475622
0.477157
0.479302
0.480936
0.483775
0.485499
0.479012
0.684925
0.865147
0.9908
1.09436
1.1758
1.23934
1.28333
1.31495
1.3319
1.34305
1.34327
1.34113
1.33596
1.32747
1.31731
1.30635
1.29486
0.00955099
0.0196152
0.0293424
0.0375661
0.0442497
0.0496303
0.0539304
0.0573905
0.0606535
0.0635809
0.0663567
0.0692045
0.0723923
0.076133
0.0807152
0.0863144
0.0928709
0.100207
0.108299
0.117119
0.126743
0.137206
0.148662
0.161069
0.1744
0.188597
0.203677
0.219514
0.236062
0.253191
0.270841
0.288869
0.307228
0.325782
0.344496
0.363253
0.382036
0.40075
0.419401
0.437911
0.456301
0.47451
0.492568
0.510426
0.528121
0.545614
0.562945
0.580087
0.597083
0.613902
0.630583
0.6471
0.663485
0.679714
0.695814
0.711763
0.727583
0.743253
0.758789
0.774175
0.789419
0.804508
0.819443
0.834217
0.848822
0.863255
0.877497
0.891549
0.905383
0.919011
0.932404
0.945589
0.958529
0.971265
0.983749
0.996032
1.00805
1.01988
1.03143
1.04279
1.05386
1.06476
1.07545
1.08613
1.09682
1.10747
1.11717
1.12735
1.137
1.14647
1.15578
1.16461
1.17317
1.18127
1.18844
1.20149
1.20746
1.22607
1.23691
1.24692
1.25629
1.26119
1.25956
1.26742
1.28589
1.28607
1.30357
1.3009
1.31299
1.31222
1.32826
1.32256
1.32565
1.32902
1.33974
1.33651
1.33949
1.34801
1.34557
1.34367
1.34705
1.34214
1.33898
1.33352
1.32684
1.31896
1.30984
1.29952
1.28794
1.27502
1.26073
1.24512
1.22817
1.20995
1.19048
1.16965
1.14756
1.12436
1.10014
1.07504
1.0492
1.02268
0.995526
0.968435
0.941261
0.913245
0.890356
0.872208
0.854631
0.83707
0.819523
0.802076
0.784766
0.767717
0.750779
0.733889
0.717368
0.701477
0.685878
0.670496
0.655476
0.640924
0.626936
0.613487
0.600545
0.588112
0.576214
0.564829
0.553945
0.543548
0.533624
0.524128
0.515062
0.506254
0.497956
0.489229
0.481819
0.470984
0.46555
0.436781
0.0275761
0.0540016
0.0754267
0.0916957
0.10514
0.116718
0.126904
0.136
0.144284
0.152318
0.160594
0.169541
0.179504
0.190717
0.203293
0.217213
0.232434
0.248938
0.266697
0.285691
0.305937
0.327456
0.350276
0.37439
0.399782
0.426412
0.454238
0.483191
0.513192
0.544103
0.57581
0.608185
0.641126
0.674512
0.708244
0.742215
0.776342
0.810536
0.84474
0.87889
0.912948
0.946869
0.980633
1.01421
1.04759
1.08076
1.11373
1.14648
1.17902
1.21135
1.24349
1.27542
1.30715
1.33868
1.37001
1.40113
1.43204
1.46274
1.49321
1.52345
1.55343
1.58315
1.6126
1.64175
1.67058
1.69908
1.72724
1.75503
1.78245
1.80941
1.83588
1.86184
1.88728
1.91217
1.93651
1.96027
1.98343
2.006
2.02797
2.04933
2.07009
2.09027
2.10987
2.12896
2.14759
2.1659
2.18369
2.20105
2.21803
2.23472
2.25119
2.26743
2.28352
2.29958
2.3154
2.33193
2.3476
2.36462
2.38013
2.39591
2.41121
2.42595
2.44042
2.45577
2.47072
2.48354
2.49756
2.50912
2.52242
2.53375
2.54645
2.55639
2.56668
2.57692
2.58644
2.59395
2.5992
2.61119
2.61438
2.62341
2.62409
2.62573
2.62679
2.62723
2.62369
2.61821
2.61056
2.60065
2.58844
2.57377
2.55629
2.53597
2.51278
2.4867
2.45776
2.426
2.39149
2.35445
2.31506
2.27351
2.23004
2.18486
2.13816
2.09019
2.04163
1.99232
1.94251
1.89286
1.8432
1.79374
1.74473
1.6964
1.64892
1.6024
1.5564
1.51102
1.46678
1.42403
1.38275
1.34266
1.30379
1.26636
1.23047
1.19604
1.16298
1.13131
1.10106
1.07216
1.04458
1.0183
0.993246
0.969373
0.946617
0.924875
0.904171
0.884047
0.865582
0.845157
0.831204
0.789827
0.0446029
0.0857288
0.11382
0.13471
0.152172
0.167609
0.181749
0.195093
0.208084
0.221162
0.234756
0.249257
0.264992
0.282196
0.301
0.321446
0.343519
0.367172
0.392349
0.418999
0.447092
0.476606
0.507525
0.539826
0.573479
0.608436
0.644641
0.682011
0.720432
0.759773
0.799926
0.840776
0.882214
0.924129
0.966419
1.00898
1.05173
1.09458
1.13747
1.18034
1.22314
1.26585
1.30842
1.35084
1.3931
1.43518
1.47708
1.51879
1.5603
1.60163
1.64276
1.6837
1.72445
1.76501
1.80537
1.84552
1.88546
1.92519
1.96469
2.00394
2.04293
2.08163
2.12004
2.15812
2.19584
2.23318
2.2701
2.30658
2.34258
2.37805
2.41295
2.44727
2.48095
2.51397
2.54629
2.57788
2.60872
2.63876
2.66799
2.6964
2.72396
2.75069
2.7766
2.80172
2.8261
2.84974
2.87255
2.8946
2.91595
2.93664
2.95674
2.97629
2.99531
3.01388
3.0319
3.04966
3.06677
3.08375
3.09992
3.11584
3.13111
3.14592
3.16027
3.17432
3.18787
3.2009
3.21388
3.22653
3.23892
3.25057
3.26198
3.27239
3.28243
3.29228
3.30105
3.30904
3.31603
3.32354
3.32863
3.33266
3.33353
3.33313
3.33183
3.3287
3.32277
3.31433
3.30319
3.28917
3.27212
3.25185
3.22819
3.20105
3.17037
3.13614
3.09838
3.05718
3.01264
2.96496
2.91436
2.86107
2.80533
2.7474
2.68754
2.62609
2.5637
2.50095
2.43804
2.37518
2.31244
2.25006
2.1883
2.12741
2.0676
2.009
1.9516
1.8955
1.84089
1.78796
1.73677
1.68688
1.63833
1.5915
1.54652
1.50329
1.46164
1.42168
1.38346
1.34688
1.31192
1.27856
1.24674
1.21639
1.18746
1.15986
1.13359
1.10839
1.08491
1.06109
1.04404
1.00813
0.0598968
0.117297
0.151583
0.176659
0.197574
0.216188
0.23345
0.249989
0.266319
0.282898
0.300155
0.318474
0.338173
0.359486
0.382553
0.407428
0.434099
0.462519
0.492623
0.524349
0.557651
0.592488
0.628829
0.666638
0.70587
0.746466
0.788346
0.831405
0.87554
0.920655
0.966646
1.0134
1.06081
1.10877
1.15717
1.20592
1.25492
1.30411
1.35342
1.40279
1.45218
1.50154
1.55084
1.60006
1.64917
1.69817
1.74704
1.79577
1.84435
1.89278
1.94105
1.98917
2.03713
2.08493
2.13256
2.18001
2.22727
2.27435
2.32121
2.36785
2.41424
2.46037
2.5062
2.5517
2.59685
2.6416
2.68591
2.72975
2.77307
2.81582
2.85796
2.89943
2.94019
2.98018
3.01936
3.05768
3.09508
3.13154
3.167
3.20143
3.23481
3.26712
3.29837
3.32855
3.35766
3.38569
3.41262
3.43847
3.46328
3.4871
3.50996
3.5319
3.55295
3.57314
3.59247
3.61102
3.62874
3.64575
3.66192
3.6774
3.69209
3.70609
3.71943
3.7322
3.74441
3.75612
3.76741
3.77825
3.78851
3.79814
3.80718
3.81545
3.82314
3.83036
3.83667
3.842
3.84623
3.85005
3.85174
3.85173
3.85013
3.84701
3.84212
3.83507
3.82542
3.81305
3.79773
3.77927
3.75745
3.73209
3.70301
3.67011
3.63332
3.59261
3.54799
3.49956
3.44743
3.3918
3.33289
3.27093
3.20621
3.13906
3.06991
2.99923
2.9276
2.85556
2.78339
2.71132
2.63953
2.56826
2.49777
2.42833
2.36015
2.29338
2.22812
2.16449
2.10261
2.04258
1.98449
1.92821
1.87373
1.82118
1.77064
1.72195
1.67481
1.62953
1.58618
1.5446
1.50477
1.46674
1.4304
1.39572
1.36265
1.33112
1.30113
1.27256
1.24579
1.21983
1.19942
1.16762
0.0735151
0.147188
0.188169
0.217662
0.242086
0.26377
0.283891
0.303205
0.322291
0.341643
0.361703
0.382855
0.405422
0.429642
0.455673
0.483588
0.513399
0.545074
0.57856
0.613797
0.650733
0.689319
0.72951
0.771258
0.814506
0.859187
0.90522
0.952515
1.00098
1.05051
1.10101
1.15237
1.20447
1.25722
1.31052
1.36427
1.41839
1.47282
1.52748
1.58231
1.63728
1.69232
1.74741
1.80251
1.8576
1.91265
1.96765
2.02258
2.07743
2.1322
2.18687
2.24145
2.29592
2.35027
2.40452
2.45863
2.51261
2.56645
2.62011
2.6736
2.72688
2.77994
2.83273
2.88522
2.93738
2.98915
3.0405
3.09138
3.14171
3.19146
3.24055
3.28893
3.33652
3.38327
3.4291
3.47394
3.51774
3.56042
3.60193
3.64222
3.68124
3.71896
3.75535
3.79038
3.82403
3.85629
3.88712
3.91655
3.94459
3.97127
3.99661
4.02065
4.0434
4.06491
4.08519
4.10428
4.12223
4.13906
4.15479
4.16948
4.18313
4.19581
4.20758
4.2185
4.22863
4.23802
4.24666
4.25457
4.26171
4.26813
4.27378
4.27852
4.28241
4.28575
4.28829
4.28932
4.28897
4.28797
4.28542
4.28141
4.27576
4.26839
4.25907
4.24751
4.23341
4.21654
4.19667
4.17356
4.14698
4.11673
4.08263
4.04455
4.00239
3.9561
3.9057
3.85126
3.79288
3.73076
3.66509
3.59617
3.52434
3.45006
3.37378
3.29601
3.21728
3.13808
3.05875
2.97956
2.90076
2.82261
2.74537
2.6693
2.59464
2.52155
2.45018
2.38064
2.31305
2.2475
2.18404
2.12264
2.0633
2.00606
1.95097
1.89796
1.8469
1.79787
1.75087
1.70566
1.66225
1.62075
1.58104
1.54308
1.50687
1.47234
1.43951
1.40834
1.37909
1.35138
1.32813
1.29763
0.0853255
0.17512
0.222889
0.256891
0.284862
0.309581
0.33243
0.354281
0.375778
0.397448
0.419749
0.443076
0.467761
0.494059
0.522154
0.552149
0.584091
0.617976
0.653774
0.691439
0.73092
0.772166
0.815124
0.859737
0.905943
0.95367
1.00284
1.05337
1.10516
1.15813
1.21216
1.26717
1.32304
1.37969
1.43702
1.49495
1.5534
1.61229
1.67155
1.73114
1.79098
1.85104
1.91126
1.97161
2.03207
2.09259
2.15316
2.21376
2.27437
2.33499
2.39559
2.45618
2.51674
2.57726
2.63774
2.69818
2.75855
2.81884
2.87904
2.93913
2.99908
3.05886
3.11844
3.17778
3.23683
3.29555
3.35386
3.41173
3.46907
3.52581
3.58189
3.63722
3.69172
3.7453
3.79788
3.84936
3.89967
3.94872
3.99643
4.04271
4.08752
4.13077
4.17244
4.21245
4.25078
4.28738
4.32223
4.35532
4.38665
4.41623
4.44407
4.47021
4.49465
4.51744
4.5386
4.55817
4.5762
4.59273
4.6078
4.62146
4.63375
4.64474
4.65447
4.66302
4.67046
4.67685
4.68215
4.68636
4.68954
4.69189
4.69331
4.69344
4.69228
4.69046
4.68763
4.68349
4.67818
4.67174
4.66393
4.65465
4.64376
4.63112
4.61652
4.59973
4.58048
4.55854
4.53366
4.50559
4.4741
4.43896
4.39998
4.357
4.3099
4.25861
4.20311
4.14345
4.07973
4.01212
3.94086
3.8663
3.78884
3.70893
3.62705
3.5437
3.45938
3.37454
3.28957
3.20477
3.12042
3.03681
2.9542
2.87286
2.79303
2.71489
2.6386
2.56429
2.49207
2.42203
2.35421
2.28862
2.22527
2.16417
2.10532
2.04869
1.99423
1.94192
1.89178
1.84369
1.79759
1.7535
1.71121
1.67071
1.63205
1.59515
1.56006
1.52681
1.49557
1.46629
1.44076
1.41037
0.0955558
0.200655
0.254959
0.293381
0.324844
0.352524
0.37799
0.402212
0.425888
0.449577
0.473754
0.498827
0.525141
0.552972
0.582531
0.613957
0.647334
0.682693
0.720032
0.759325
0.800532
0.843604
0.888488
0.935124
0.983447
1.03339
1.08486
1.1378
1.1921
1.24769
1.30447
1.36234
1.42122
1.48102
1.54166
1.60304
1.6651
1.72776
1.79096
1.85462
1.91871
1.98315
2.0479
2.11293
2.17818
2.24364
2.30927
2.37504
2.44095
2.50696
2.57308
2.63928
2.70556
2.77191
2.83832
2.90477
2.97127
3.03778
3.10431
3.17081
3.23728
3.30366
3.36994
3.43605
3.50196
3.56759
3.6329
3.6978
3.76221
3.82606
3.88925
3.95168
4.01326
4.07387
4.13342
4.19178
4.24886
4.30454
4.35871
4.41129
4.46216
4.51126
4.55849
4.60379
4.64708
4.68832
4.72746
4.76446
4.79931
4.83201
4.86256
4.89097
4.91725
4.94145
4.96358
4.98369
5.00183
5.01804
5.03238
5.04489
5.05565
5.06469
5.0721
5.07791
5.08223
5.08523
5.08669
5.08661
5.08507
5.08246
5.07859
5.0733
5.06677
5.05909
5.0502
5.04001
5.02855
5.01581
5.00169
4.98611
4.96896
4.95009
4.92935
4.90652
4.88139
4.85373
4.8233
4.78986
4.75316
4.71297
4.66908
4.6213
4.56949
4.51354
4.45342
4.38914
4.32081
4.24861
4.17282
4.09377
4.01188
3.9276
3.84138
3.7537
3.66504
3.57585
3.4865
3.39733
3.30866
3.22077
3.13395
3.04846
2.96454
2.88238
2.80216
2.72402
2.64807
2.57438
2.50302
2.43401
2.36736
2.30306
2.24112
2.1815
2.12416
2.06908
2.01626
1.96563
1.91715
1.87077
1.82639
1.78394
1.74339
1.70462
1.66774
1.63279
1.59993
1.56925
1.54181
1.51106
0.105529
0.223568
0.2838
0.326344
0.361103
0.391594
0.419539
0.445987
0.471677
0.497192
0.52302
0.549577
0.577222
0.60625
0.636895
0.66933
0.703671
0.739986
0.778302
0.818617
0.860908
0.905136
0.951253
0.999203
1.04892
1.10034
1.1534
1.208
1.26408
1.32155
1.38034
1.44035
1.50151
1.56374
1.62696
1.69108
1.75605
1.82179
1.88823
1.95531
2.02297
2.09115
2.1598
2.22889
2.29836
2.36818
2.43832
2.50874
2.57944
2.65038
2.72155
2.79294
2.86455
2.93634
3.00833
3.08049
3.15282
3.2253
3.29792
3.37064
3.44345
3.5163
3.58916
3.66197
3.73468
3.80723
3.87954
3.95152
4.02309
4.09415
4.16459
4.2343
4.30316
4.37103
4.4378
4.50332
4.56746
4.63009
4.69108
4.75029
4.8076
4.8629
4.91607
4.96703
5.01568
5.06193
5.10572
5.14699
5.18571
5.22186
5.25543
5.28641
5.31481
5.34065
5.36397
5.3848
5.40319
5.41919
5.43286
5.44426
5.45343
5.46045
5.46544
5.46831
5.46919
5.4682
5.46539
5.46074
5.45436
5.44637
5.43676
5.42553
5.41278
5.39856
5.3829
5.36579
5.34728
5.32735
5.30599
5.28314
5.25875
5.23271
5.20491
5.17519
5.14336
5.10925
5.07262
5.03325
4.9909
4.94534
4.89634
4.84369
4.78724
4.72685
4.66246
4.59409
4.52185
4.44591
4.36653
4.28403
4.19881
4.11126
4.02185
3.931
3.83917
3.74678
3.65422
3.56185
3.46999
3.37894
3.28898
3.20037
3.11335
3.02814
2.94491
2.86381
2.78495
2.70841
2.63425
2.56251
2.4932
2.42633
2.36188
2.29982
2.24013
2.18276
2.12771
2.07495
2.02442
1.97609
1.92985
1.88567
1.84349
1.80325
1.76498
1.72867
1.69448
1.66256
1.63352
1.60217
0.116899
0.243852
0.309104
0.35525
0.392962
0.426021
0.45626
0.48478
0.512348
0.539556
0.566896
0.594791
0.623601
0.653634
0.685142
0.718322
0.753319
0.790229
0.829111
0.869986
0.912851
0.957684
1.00445
1.0531
1.10357
1.15582
1.20977
1.26536
1.32252
1.38118
1.44126
1.5027
1.56542
1.62935
1.69442
1.76057
1.82772
1.89582
1.96478
2.03457
2.10511
2.17634
2.24823
2.32072
2.39376
2.46733
2.54138
2.61588
2.69081
2.76615
2.84187
2.91798
2.99444
3.07127
3.14843
3.22593
3.30376
3.38189
3.46032
3.53901
3.61794
3.69707
3.77635
3.85575
3.93518
4.01458
4.09388
4.17296
4.25174
4.3301
4.40791
4.48504
4.56135
4.6367
4.71093
4.78388
4.85538
4.92528
4.99342
5.05962
5.12375
5.18564
5.24517
5.3022
5.35661
5.40829
5.45715
5.5031
5.5461
5.58609
5.62305
5.65695
5.68781
5.71562
5.74042
5.76224
5.78112
5.79712
5.81029
5.8207
5.82841
5.83342
5.83578
5.83567
5.83313
5.82825
5.82106
5.81163
5.80004
5.78637
5.77068
5.75303
5.7335
5.71217
5.68911
5.66437
5.63802
5.61008
5.5806
5.54959
5.51701
5.48287
5.44707
5.40953
5.37013
5.32872
5.28512
5.23914
5.19056
5.13916
5.08471
5.027
4.96585
4.90115
4.83281
4.76084
4.68532
4.6064
4.5243
4.4393
4.35174
4.262
4.17048
4.07757
3.9837
3.88925
3.79461
3.70017
3.60623
3.5131
3.42105
3.33035
3.24123
3.15391
3.06857
2.98537
2.90441
2.82579
2.74957
2.6758
2.60449
2.53564
2.46926
2.40531
2.34376
2.28459
2.22777
2.17327
2.12107
2.0711
2.02331
1.97764
1.93406
1.89253
1.85305
1.81566
1.78041
1.74741
1.71702
1.685
0.127054
0.260898
0.330383
0.379612
0.419901
0.455246
0.487562
0.517987
0.547298
0.57609
0.60485
0.633992
0.663877
0.694812
0.727058
0.760826
0.79628
0.833541
0.872689
0.913772
0.956808
1.00179
1.04871
1.09752
1.14819
1.20067
1.2549
1.31083
1.36841
1.42757
1.48827
1.55043
1.614
1.67891
1.74511
1.81255
1.88115
1.95086
2.02162
2.09337
2.16606
2.23964
2.31405
2.38925
2.46519
2.54183
2.61915
2.6971
2.77567
2.85482
2.93455
3.01483
3.09566
3.17703
3.25892
3.34133
3.42426
3.50767
3.59157
3.67592
3.7607
3.84586
3.93137
4.01716
4.10317
4.18933
4.27553
4.36167
4.44765
4.53333
4.61857
4.70323
4.78714
4.87012
4.95201
5.03261
5.11174
5.18919
5.26479
5.33832
5.40961
5.47848
5.54474
5.60824
5.66882
5.72634
5.78069
5.83174
5.87941
5.92365
5.9644
6.00162
6.0353
6.06543
6.09205
6.11516
6.13483
6.15108
6.164
6.17364
6.17997
6.18307
6.18312
6.18016
6.17426
6.16548
6.1539
6.13959
6.12263
6.10311
6.0811
6.05671
6.03002
6.00114
5.97017
5.9372
5.90235
5.86568
5.8273
5.78726
5.74563
5.70244
5.65771
5.61141
5.56349
5.51387
5.46245
5.40907
5.35356
5.29575
5.23541
5.17235
5.10641
5.03747
4.96543
4.89027
4.81202
4.73079
4.64675
4.56012
4.47119
4.38026
4.28769
4.19382
4.09902
4.00364
3.90806
3.81268
3.71779
3.62368
3.53062
3.43886
3.34862
3.26015
3.17363
3.08921
3.007
2.92709
2.84956
2.77446
2.70181
2.63162
2.56388
2.49859
2.4357
2.37521
2.31707
2.26127
2.20777
2.15653
2.1075
2.06064
2.0159
1.97328
1.93278
1.89443
1.85828
1.82439
1.79285
1.7602
0.135574
0.274439
0.347351
0.399135
0.441603
0.478924
0.513075
0.545213
0.576119
0.60638
0.636471
0.666791
0.697689
0.729464
0.762374
0.796634
0.832418
0.869862
0.909064
0.950092
0.992985
1.03776
1.08442
1.13294
1.18331
1.23548
1.28944
1.34513
1.40251
1.46155
1.5222
1.58441
1.64814
1.71333
1.77995
1.84794
1.91726
1.98785
2.05967
2.13265
2.20677
2.28195
2.35817
2.43537
2.51351
2.59255
2.67247
2.75323
2.8348
2.91716
3.0003
3.08419
3.16883
3.25422
3.34034
3.42719
3.51477
3.60306
3.69204
3.78169
3.87198
3.96288
4.05433
4.14628
4.23865
4.33137
4.42434
4.51743
4.61053
4.70349
4.79616
4.88836
4.97992
5.07064
5.16031
5.24873
5.33566
5.42089
5.50418
5.58531
5.66406
5.74021
5.81354
5.88385
5.95096
6.0147
6.07489
6.13142
6.18416
6.23302
6.27793
6.31883
6.35568
6.38849
6.41725
6.44198
6.46273
6.47952
6.49244
6.50152
6.5067
6.50825
6.50617
6.50052
6.49137
6.47881
6.4629
6.44372
6.42136
6.39591
6.36746
6.33612
6.30201
6.26525
6.22597
6.18431
6.1404
6.09438
6.0464
5.99658
5.94507
5.89197
5.83739
5.78138
5.72399
5.66525
5.60509
5.54346
5.48028
5.41544
5.34873
5.27999
5.2091
5.13592
5.06034
4.9823
4.90179
4.81885
4.73358
4.64614
4.55674
4.46561
4.37303
4.27929
4.18469
4.08952
3.99413
3.89896
3.80427
3.71031
3.61734
3.52558
3.43526
3.34663
3.25988
3.17515
3.09256
3.01219
2.93413
2.85844
2.78515
2.71427
2.6458
2.57973
2.51604
2.45472
2.39574
2.33907
2.28469
2.23255
2.18263
2.13487
2.08927
2.0458
2.00448
1.96533
1.9284
1.89375
1.86127
1.82806
0.142345
0.284424
0.359939
0.413731
0.457958
0.496916
0.532624
0.566251
0.598574
0.630163
0.661475
0.692889
0.724733
0.75729
0.790807
0.825491
0.861519
0.899031
0.938137
0.978919
1.02143
1.06572
1.11179
1.15966
1.20931
1.26074
1.31393
1.36886
1.42551
1.48385
1.54386
1.60551
1.66877
1.73359
1.79995
1.86781
1.93715
2.00792
2.08009
2.1536
2.22842
2.30451
2.38183
2.46033
2.53999
2.62076
2.70262
2.78553
2.86948
2.95444
3.04039
3.12732
3.21521
3.30407
3.39389
3.48469
3.57644
3.66914
3.76277
3.85731
3.95273
4.04899
4.14605
4.24385
4.34231
4.44134
4.54085
4.64069
4.74075
4.84086
4.94084
5.04053
5.1397
5.23814
5.33562
5.4319
5.52673
5.61984
5.71098
5.79988
5.88628
5.96992
6.05055
6.12794
6.20185
6.27208
6.33843
6.40073
6.45884
6.51263
6.56201
6.60689
6.64723
6.683
6.7142
6.74083
6.76292
6.78051
6.79366
6.80241
6.8068
6.80698
6.80297
6.79481
6.78259
6.76637
6.74624
6.72226
6.69453
6.66313
6.62818
6.58978
6.54809
6.50322
6.45535
6.40462
6.35123
6.29534
6.23718
6.17692
6.11479
6.05099
5.98571
5.91911
5.85132
5.78254
5.71277
5.64204
5.57034
5.4974
5.42335
5.34819
5.27184
5.19416
5.11503
5.03434
4.952
4.86799
4.7823
4.69501
4.60622
4.51607
4.42475
4.33245
4.23939
4.14582
4.05194
3.95818
3.86487
3.77222
3.68047
3.58983
3.50047
3.41271
3.32673
3.24265
3.16058
3.08062
3.00284
2.92733
2.85413
2.78325
2.71468
2.64845
2.58453
2.52291
2.46358
2.40651
2.35166
2.29903
2.24857
2.20026
2.15409
2.11004
2.06813
2.02839
1.99084
1.95553
1.92228
1.88864
0.147329
0.290908
0.36821
0.423457
0.469007
0.509237
0.546195
0.581052
0.614573
0.647311
0.679699
0.71209
0.744787
0.778052
0.81211
0.847157
0.883359
0.920856
0.959762
1.00017
1.04214
1.08573
1.13098
1.17792
1.22655
1.27689
1.32894
1.38269
1.43814
1.49531
1.55419
1.61478
1.67701
1.74088
1.80638
1.8735
1.94224
2.01255
2.08442
2.15781
2.23269
2.30904
2.38681
2.46598
2.54652
2.62839
2.71157
2.79604
2.88177
2.96874
3.05693
3.14634
3.23693
3.32868
3.42168
3.51591
3.61135
3.70799
3.80581
3.90478
4.00489
4.10611
4.20839
4.31165
4.41584
4.52084
4.62656
4.73287
4.83961
4.94661
5.0537
5.16067
5.26729
5.37332
5.4785
5.58257
5.68524
5.78621
5.8852
5.9819
6.07601
6.16722
6.25526
6.33984
6.4207
6.49758
6.57025
6.63852
6.70219
6.76111
6.81516
6.86424
6.90827
6.94722
6.98105
7.00979
7.03343
7.05202
7.0656
7.07423
7.07799
7.077
7.07125
7.06075
7.0456
7.02587
7.00161
6.9729
6.93984
6.90251
6.86102
6.8155
6.7661
6.71296
6.65626
6.59619
6.53295
6.46679
6.39794
6.32668
6.25329
6.17807
6.10134
6.02335
5.9443
5.8641
5.78316
5.70184
5.62042
5.53922
5.45829
5.37722
5.2959
5.21421
5.132
5.04912
4.96542
4.8808
4.79518
4.70854
4.62091
4.53232
4.44288
4.3527
4.26192
4.17071
4.07931
3.98834
3.89781
3.80787
3.71869
3.63048
3.54331
3.45754
3.37337
3.29093
3.21033
3.13167
3.05502
2.98051
2.90817
2.83801
2.77004
2.70426
2.64071
2.57935
2.52019
2.4632
2.40835
2.35564
2.30504
2.25654
2.21012
2.16579
2.12355
2.08343
2.04545
2.00964
1.97578
1.94187
0.150573
0.294068
0.372355
0.428475
0.474891
0.516012
0.55389
0.589686
0.624152
0.65782
0.691098
0.724312
0.757737
0.791608
0.826125
0.861467
0.897783
0.935204
0.973841
1.01379
1.05512
1.0979
1.14218
1.18801
1.23543
1.28448
1.33512
1.38739
1.44131
1.49693
1.5543
1.61347
1.67432
1.73686
1.80111
1.86708
1.93476
2.00414
2.07521
2.14795
2.22236
2.2984
2.37606
2.45531
2.53614
2.61852
2.70242
2.78784
2.87475
2.96314
3.053
3.14431
3.23707
3.33125
3.42697
3.52416
3.62282
3.72292
3.82444
3.92735
4.03167
4.13738
4.24441
4.35268
4.46213
4.57267
4.68418
4.79652
4.90953
5.02305
5.13687
5.25077
5.3645
5.47781
5.59041
5.70201
5.81228
5.92092
6.02758
6.13192
6.23361
6.33231
6.42768
6.5194
6.60717
6.69069
6.7697
6.84395
6.91322
6.97733
7.03612
7.08946
7.13726
7.17946
7.21603
7.24694
7.27223
7.2919
7.30601
7.31462
7.31779
7.3158
7.30841
7.29568
7.2777
7.2545
7.22617
7.19277
7.15438
7.11109
7.06302
7.01029
6.95305
6.89147
6.82575
6.75608
6.6827
6.60588
6.52594
6.44322
6.35806
6.27077
6.18128
6.09039
5.9987
5.90706
5.8158
5.72487
5.63465
5.54561
5.45695
5.36912
5.28217
5.19602
5.1105
5.02544
4.94061
4.85584
4.77096
4.68583
4.60035
4.51445
4.42812
4.34135
4.25418
4.16669
4.07888
3.99138
3.90426
3.81765
3.73172
3.64662
3.56232
3.47967
3.3985
3.31886
3.24085
3.16454
3.08996
3.01729
2.9466
2.87792
2.81125
2.7466
2.68403
2.62353
2.56509
2.50869
2.45431
2.40197
2.35164
2.30332
2.25701
2.21271
2.17042
2.13018
2.09199
2.05587
2.02159
1.98758
0.151981
0.293796
0.37231
0.42883
0.47574
0.517406
0.555879
0.592313
0.62745
0.661804
0.695758
0.729613
0.763616
0.79797
0.832854
0.868419
0.904797
0.942104
0.980441
1.0199
1.06055
1.10247
1.14573
1.19039
1.23651
1.28419
1.33339
1.38416
1.43652
1.49051
1.54615
1.60343
1.66241
1.72314
1.78566
1.84999
1.91616
1.98416
2.054
2.12569
2.19922
2.27458
2.35177
2.43075
2.51153
2.59409
2.67841
2.76448
2.85227
2.94179
3.03301
3.12593
3.22053
3.31678
3.41472
3.51435
3.61568
3.7187
3.8234
3.92975
4.0378
4.14749
4.25873
4.37145
4.48559
4.60108
4.71779
4.83559
4.9543
5.07375
5.19373
5.31399
5.43429
5.55434
5.67384
5.79247
5.90989
6.02574
6.13964
6.25124
6.36014
6.46598
6.56837
6.66695
6.76137
6.8513
6.93643
7.01648
7.09119
7.16033
7.22373
7.28122
7.33268
7.37804
7.41724
7.45026
7.47711
7.4978
7.51238
7.52092
7.52338
7.52043
7.51141
7.49643
7.47557
7.44888
7.41641
7.37824
7.33443
7.28509
7.23031
7.17022
7.10498
7.03479
6.95984
6.88035
6.79659
6.7088
6.61702
6.52183
6.42381
6.32351
6.22215
6.11967
6.01672
5.9142
5.81155
5.7097
5.60921
5.51051
5.41364
5.31883
5.22616
5.13558
5.04693
4.96
4.87451
4.79019
4.70676
4.62397
4.54157
4.45938
4.37723
4.295
4.21265
4.13014
4.04754
3.96508
3.88287
3.80106
3.71977
3.63915
3.55916
3.48032
3.40274
3.32649
3.25166
3.17832
3.10655
3.03666
2.96855
2.90221
2.83766
2.77487
2.71394
2.65491
2.59776
2.54248
2.48907
2.43756
2.38794
2.34021
2.29437
2.25043
2.2084
2.16831
2.13015
2.09391
2.05947
2.02558
0.151989
0.291201
0.369262
0.425653
0.472512
0.514227
0.552844
0.589507
0.624941
0.659641
0.693968
0.7282
0.762558
0.797222
0.832344
0.868052
0.904459
0.941664
0.979756
1.01882
1.05892
1.10013
1.14252
1.18614
1.23105
1.27727
1.3248
1.37378
1.42426
1.47633
1.53005
1.58548
1.64266
1.70163
1.76243
1.82512
1.88972
1.95626
2.02478
2.09528
2.16778
2.24228
2.31879
2.3973
2.47781
2.56031
2.64478
2.73122
2.81961
2.90995
3.00221
3.0964
3.1925
3.29051
3.39043
3.49228
3.59606
3.70175
3.80934
3.91879
4.03006
4.14316
4.25803
4.37461
4.49286
4.61265
4.73389
4.85644
4.98014
5.1048
5.2302
5.35611
5.48225
5.60833
5.73404
5.85902
5.98292
6.10534
6.2259
6.34416
6.45973
6.57217
6.68108
6.78605
6.88669
6.98261
7.07348
7.15895
7.23875
7.31261
7.3803
7.44163
7.49646
7.54469
7.58624
7.62108
7.6492
7.67061
7.68535
7.69349
7.69509
7.6909
7.67997
7.66247
7.63845
7.60794
7.57101
7.52772
7.47815
7.42236
7.36049
7.29264
7.21895
7.13947
7.05444
6.96415
6.86896
6.76929
6.666
6.55921
6.44952
6.33789
6.22386
6.10853
5.99273
5.87722
5.76247
5.64924
5.5382
5.4299
5.3247
5.22288
5.12459
5.02982
4.93841
4.85012
4.76461
4.6815
4.60041
4.52094
4.4427
4.36536
4.2886
4.21219
4.13592
4.0597
3.98349
3.90737
3.8314
3.75568
3.68032
3.60542
3.53106
3.45748
3.38484
3.31325
3.24279
3.17354
3.10551
3.039
2.97401
2.91056
2.84866
2.78831
2.72975
2.67288
2.61768
2.56413
2.51225
2.46205
2.41359
2.36686
2.32186
2.27863
2.23716
2.19749
2.1596
2.12355
2.0892
2.05565
0.150551
0.285254
0.362108
0.41787
0.464345
0.505835
0.544368
0.58107
0.616643
0.651562
0.686164
0.720703
0.755372
0.790323
0.825682
0.861553
0.898025
0.935175
0.973079
1.0118
1.05142
1.092
1.1336
1.17629
1.22014
1.26524
1.31165
1.35943
1.40865
1.45939
1.51173
1.56575
1.62152
1.67911
1.73857
1.79995
1.86332
1.92872
1.99619
2.06577
2.13748
2.21133
2.28735
2.36553
2.44588
2.5284
2.61308
2.6999
2.78886
2.87994
2.97313
3.06841
3.16577
3.26521
3.36672
3.4703
3.57594
3.68363
3.79335
3.90508
4.0188
4.13447
4.25208
4.37155
4.49276
4.61566
4.74016
4.86614
4.99344
5.12187
5.25123
5.38129
5.51177
5.64237
5.77278
5.90264
6.03156
6.15913
6.28493
6.40851
6.52942
6.64721
6.76142
6.87161
6.97734
7.07819
7.17378
7.26373
7.34772
7.42543
7.49661
7.56104
7.61853
7.66895
7.71222
7.74827
7.77709
7.79867
7.81305
7.82025
7.82069
7.81487
7.80165
7.78126
7.75371
7.71905
7.67731
7.62851
7.57272
7.51002
7.44051
7.36433
7.28169
7.19298
7.09837
6.99807
6.89253
6.78243
6.66748
6.54853
6.42626
6.30139
6.17443
6.04622
5.91767
5.7897
5.66311
5.5388
5.41759
5.30019
5.18716
5.07891
4.97565
4.87741