/*--------------------------------*- C++ -*----------------------------------*\
| =========                 |                                                 |
| \\      /  F ield         | OpenFOAM: The Open Source CFD Toolbox           |
|  \\    /   O peration     | Version:  2406                                  |
|   \\  /    A nd           | Website:  www.openfoam.com                      |
|    \\/     M anipulation  |                                                 |
\*---------------------------------------------------------------------------*/
FoamFile
{
    version     2.0;
    format      ascii;
    arch        "LSB;label=32;scalar=64";
    class       volScalarField;
    location    "100";
    object      nut;
}
// * * * * * * * * * * * * * * * * * * * * * * * * * * * * * * * * * * * * * //

dimensions      [0 2 -1 0 0 0 0];

internalField   nonuniform List<scalar> 
12225
(
2.70739e-05
3.55749e-05
4.05232e-05
4.3193e-05
4.44521e-05
4.49659e-05
4.49131e-05
4.48748e-05
4.45067e-05
4.41902e-05
4.3858e-05
4.35322e-05
4.32375e-05
4.29593e-05
4.2727e-05
4.24957e-05
4.23373e-05
4.21213e-05
0.000213068
8.46254e-05
5.59043e-05
4.40695e-05
3.83665e-05
3.53677e-05
3.38374e-05
3.30916e-05
3.28439e-05
3.28826e-05
3.32067e-05
3.36068e-05
3.42228e-05
3.4796e-05
3.55814e-05
3.62156e-05
3.71365e-05
3.76301e-05
0.000657683
0.000306297
0.000194167
0.00014204
0.000113268
9.45159e-05
8.20495e-05
7.33443e-05
6.68264e-05
6.19974e-05
5.80749e-05
5.51532e-05
5.25776e-05
5.07635e-05
4.89502e-05
4.79179e-05
4.6422e-05
4.54867e-05
0.000863447
0.000609381
0.000451857
0.000350684
0.000289435
0.000246496
0.000216752
0.000194344
0.000177829
0.000164374
0.000154123
0.000145181
0.000138296
0.000131879
0.000127018
0.000122105
0.000118388
0.000114063
0.000877547
0.000776458
0.000691096
0.000591779
0.000517462
0.000458103
0.000413566
0.000377309
0.000349761
0.000326095
0.000308013
0.00029148
0.000279072
0.000266831
0.000258075
0.000248643
0.000241898
0.000234579
0.000858437
0.000835318
0.000807383
0.000753039
0.000699483
0.000648283
0.000604908
0.000565954
0.000534298
0.000505499
0.000482625
0.000460913
0.00044427
0.000427333
0.000415211
0.000401545
0.000392562
0.00038101
0.000854263
0.000849551
0.000840726
0.000823059
0.000798634
0.000768496
0.00073923
0.000709624
0.000683435
0.000657837
0.000636328
0.000614961
0.000597883
0.000580016
0.000566776
0.000551558
0.000541542
0.000527597
0.000852391
0.000851592
0.000849794
0.000844536
0.000835953
0.000824541
0.000810206
0.000793508
0.000777295
0.000760089
0.000744649
0.000728407
0.000714705
0.000699942
0.000688364
0.000675029
0.00066568
0.000652727
0.000851903
0.00085148
0.000851079
0.000849884
0.000847548
0.000843624
0.000838606
0.000831293
0.000823675
0.000815032
0.000806352
0.000796622
0.000787884
0.000778184
0.000769973
0.000760686
0.000753237
0.000744039
0.000851815
0.000851373
0.000851073
0.00085061
0.000850036
0.000848812
0.000847337
0.000844867
0.000842012
0.000838325
0.000834531
0.000829901
0.000825472
0.000820336
0.000815647
0.000810377
0.000805677
0.000799896
0.000851799
0.000851356
0.000851021
0.000850624
0.000850326
0.000849826
0.000849341
0.000848523
0.000847612
0.000846271
0.000844888
0.000843028
0.000841226
0.000838915
0.000836859
0.000834155
0.000832104
0.000828921
0.000851792
0.000851359
0.000851001
0.000850611
0.000850307
0.000849939
0.000849633
0.000849214
0.00084882
0.000848241
0.000847685
0.000846887
0.000846153
0.000845111
0.000844236
0.000842944
0.000842009
0.000840465
0.000851787
0.000851362
0.000850989
0.000850608
0.000850281
0.000849937
0.000849647
0.000849322
0.000849044
0.000848703
0.000848405
0.000848009
0.000847669
0.000847192
0.0008468
0.000846228
0.000845791
0.000845123
0.000851783
0.000851364
0.00085098
0.000850605
0.000850264
0.000849926
0.000849623
0.000849318
0.000849046
0.000848763
0.000848512
0.000848239
0.000847998
0.000847723
0.000847482
0.000847197
0.000846948
0.000846648
0.000851781
0.000851364
0.000850974
0.0008506
0.000850252
0.000849916
0.000849604
0.000849302
0.000849021
0.000848747
0.000848493
0.000848243
0.00084801
0.000847779
0.000847563
0.000847347
0.000847144
0.00084694
0.00085178
0.000851363
0.00085097
0.000850596
0.000850243
0.000849907
0.00084959
0.000849287
0.000849
0.000848726
0.000848466
0.000848217
0.00084798
0.000847752
0.000847536
0.000847327
0.000847128
0.000846936
0.000851779
0.000851362
0.000850967
0.000850592
0.000850237
0.000849899
0.000849579
0.000849274
0.000848985
0.000848708
0.000848445
0.000848194
0.000847954
0.000847724
0.000847504
0.000847294
0.000847092
0.000846899
0.000851779
0.000851362
0.000850965
0.00085059
0.000850233
0.000849894
0.000849572
0.000849266
0.000848974
0.000848696
0.00084843
0.000848177
0.000847935
0.000847703
0.000847481
0.000847269
0.000847066
0.000846871
0.000851779
0.000851362
0.000850965
0.000850589
0.000850232
0.000849892
0.000849569
0.000849262
0.000848969
0.00084869
0.000848423
0.000848169
0.000847925
0.000847692
0.000847469
0.000847256
0.000847051
0.000846856
0.000851779
0.000851363
0.000850966
0.000850591
0.000850234
0.000849895
0.000849572
0.000849265
0.000848972
0.000848694
0.000848427
0.000848172
0.000847927
0.000847694
0.00084747
0.000847255
0.000847048
0.000846851
0.000851779
0.000851364
0.000850968
0.000850595
0.000850238
0.000849901
0.000849578
0.000849273
0.000848977
0.000848698
0.000848424
0.000848165
0.000847907
0.000847663
0.000847416
0.000847183
0.000846942
0.000846718
0.000851778
0.000851368
0.000850969
0.000850603
0.000850243
0.00084991
0.000849572
0.000849253
0.000848914
0.000848585
0.00084822
0.000847861
0.000847452
0.000847054
0.000846589
0.000846153
0.000845629
0.000845162
0.000851779
0.000851381
0.000850972
0.000850624
0.000850209
0.000849788
0.000849232
0.000848614
0.0008478
0.000846891
0.000845762
0.000844552
0.000843115
0.00084165
0.000839945
0.000838312
0.000836367
0.000834677
0.000851856
0.000851467
0.000850932
0.000850394
0.000849126
0.000847456
0.000844944
0.000841933
0.000838063
0.000833834
0.000828943
0.000823903
0.000818426
0.000812963
0.000807281
0.000801552
0.000795859
0.000790735
0.000852785
0.000851379
0.000849189
0.000845092
0.00083688
0.000827809
0.000815737
0.000802802
0.000788346
0.00077433
0.000759615
0.000746019
0.000732051
0.000719605
0.000706735
0.000695748
0.000683991
0.000674595
0.000858212
0.000842298
0.000828961
0.000803005
0.000769247
0.00073545
0.000700771
0.000669658
0.00063944
0.000613521
0.00058853
0.00056765
0.000547212
0.000530545
0.000513748
0.000500486
0.000486444
0.000475942
0.000864341
0.000785611
0.000712708
0.000628284
0.000558257
0.000503051
0.000455703
0.000418809
0.000386559
0.000361516
0.000338682
0.000321136
0.000304321
0.00029167
0.000278811
0.000269443
0.000259268
0.000252202
0.000775967
0.000540051
0.000397932
0.000312941
0.000258133
0.000219603
0.000190474
0.000169527
0.000152514
0.000139948
0.000129053
0.000120969
0.000113483
0.000108026
0.000102588
9.87611e-05
9.46423e-05
9.18674e-05
0.000323584
0.000164836
0.00011141
8.60702e-05
7.0819e-05
6.13492e-05
5.50117e-05
5.08807e-05
4.79477e-05
4.60054e-05
4.45863e-05
4.36843e-05
4.3036e-05
4.26916e-05
4.24522e-05
4.24361e-05
4.24325e-05
4.26189e-05
3.26575e-05
3.90517e-05
4.38921e-05
4.69712e-05
4.93653e-05
5.11689e-05
5.25333e-05
5.34572e-05
5.41117e-05
5.44592e-05
5.46864e-05
5.46906e-05
5.46468e-05
5.45412e-05
5.4367e-05
5.41581e-05
5.39318e-05
5.36936e-05
5.78299e-06
1.74038e-05
2.11806e-05
2.38941e-05
2.58774e-05
2.73584e-05
2.84779e-05
2.94129e-05
3.02689e-05
3.10166e-05
3.17351e-05
3.24841e-05
3.33201e-05
3.42895e-05
3.5458e-05
3.68115e-05
3.82532e-05
3.97562e-05
4.13246e-05
4.29557e-05
4.46568e-05
4.64269e-05
4.82796e-05
5.01972e-05
5.21639e-05
5.41675e-05
5.62061e-05
5.82538e-05
6.03062e-05
6.23488e-05
6.43756e-05
6.6374e-05
6.83423e-05
7.02703e-05
7.21583e-05
7.3999e-05
7.57951e-05
7.75414e-05
7.92426e-05
8.08947e-05
8.25031e-05
8.40648e-05
8.55856e-05
8.70631e-05
8.85028e-05
8.99027e-05
9.12682e-05
9.25975e-05
9.38971e-05
9.51649e-05
9.64057e-05
9.76176e-05
9.88048e-05
9.99655e-05
0.000101103
0.000102215
0.000103306
0.000104372
0.000105417
0.000106438
0.000107438
0.000108415
0.000109371
0.000110303
0.000111214
0.000112103
0.00011297
0.000113815
0.000114635
0.000115431
0.0001162
0.000116944
0.000117662
0.000118354
0.000119019
0.000119658
0.00012027
0.000120858
0.00012142
0.000121962
0.000122487
0.000123004
0.00012352
0.000124033
0.000124481
0.000124723
0.000125183
0.000125616
0.000125982
0.000126409
0.000126796
0.000127202
0.000127618
0.000128201
0.000127259
0.0001293
0.000127401
0.000130614
0.000129407
0.000129986
0.000129836
0.000129317
0.00012817
0.000129908
0.000132365
0.000129388
0.000132306
0.00013042
0.000132446
0.000129498
0.000132295
0.000130356
0.000130735
0.000131737
0.000133319
0.000131205
0.000132185
0.000133536
0.000132685
0.000131695
0.000132568
0.000132051
0.000132027
0.000131785
0.000131472
0.000131113
0.0001307
0.000130236
0.000129725
0.000129156
0.000128519
0.000127816
0.000127043
0.000126197
0.000125296
0.000124331
0.000123275
0.000122143
0.000120933
0.000119645
0.000118295
0.00011689
0.000115346
0.000113772
0.000112351
0.000110002
0.000107776
0.000106518
0.000105379
0.000104231
0.000103055
0.000101867
0.000100648
9.94516e-05
9.82688e-05
9.7029e-05
9.5754e-05
9.45556e-05
9.33741e-05
9.21709e-05
9.09623e-05
8.97591e-05
8.85802e-05
8.74318e-05
8.63075e-05
8.52057e-05
8.4133e-05
8.30901e-05
8.20758e-05
8.10912e-05
8.01362e-05
7.92095e-05
7.83096e-05
7.74308e-05
7.65786e-05
7.5709e-05
7.49266e-05
7.37811e-05
7.37807e-05
7.05715e-05
9.72589e-06
5.93525e-05
0.000121058
0.000168146
0.000200616
0.000223136
0.000238431
0.000247937
0.000252522
0.000254871
0.000256581
0.000258519
0.000261066
0.000264292
0.000268066
0.000272155
0.000276553
0.000281483
0.000287048
0.000293314
0.000300333
0.000308155
0.000316817
0.000326364
0.000336817
0.000348167
0.000360379
0.000373419
0.000387211
0.000401746
0.000416913
0.000432613
0.000448736
0.000465181
0.000481838
0.000498609
0.000515394
0.000532113
0.000548697
0.000565092
0.000581249
0.000597134
0.000612717
0.00062798
0.000642904
0.000657478
0.000671686
0.000685509
0.000699005
0.000712205
0.000725118
0.000737757
0.00075013
0.000762249
0.000774122
0.000785758
0.00079716
0.000808335
0.000819284
0.000830009
0.000840511
0.000850786
0.000860834
0.000870651
0.000880238
0.000889592
0.000898719
0.000907622
0.000916302
0.000924678
0.000932746
0.000940489
0.000947905
0.000954981
0.000961721
0.000968112
0.000974167
0.000979879
0.000985269
0.00099034
0.000995107
0.000999549
0.00100364
0.00100728
0.0010105
0.00101361
0.00101721
0.00102031
0.00102342
0.00102661
0.00102975
0.00103299
0.00103612
0.00103913
0.00104058
0.00104464
0.00104496
0.00104985
0.00104993
0.00105437
0.00105819
0.00106362
0.00107059
0.00107881
0.00108316
0.00108438
0.00109088
0.00109218
0.00109748
0.00109824
0.00110657
0.00111382
0.00111716
0.0011274
0.00112629
0.00113242
0.00113512
0.0011402
0.00114163
0.00115019
0.0011502
0.00115494
0.00115966
0.00116557
0.00116915
0.00117235
0.00117499
0.00117702
0.00117849
0.00117933
0.00117923
0.00117827
0.00117639
0.00117356
0.00116981
0.0011652
0.00115956
0.00115299
0.00114551
0.00113714
0.00112795
0.00111805
0.00110726
0.00109553
0.00108415
0.00107044
0.00105234
0.00103284
0.0010127
0.000992253
0.000971688
0.000951178
0.00093077
0.00091058
0.000890585
0.000870952
0.000851552
0.000832804
0.00081482
0.000797201
0.000779938
0.000763151
0.00074691
0.00073116
0.000715817
0.000700922
0.000686516
0.000672566
0.000659057
0.000646001
0.000633361
0.000621143
0.00060923
0.000597776
0.000586305
0.000575389
0.000564415
0.000549669
0.000536332
0.000481356
1.22854e-05
8.78836e-05
0.000184082
0.000264566
0.000327584
0.000375386
0.00041101
0.000437106
0.000455795
0.000469219
0.000479257
0.000487419
0.000494838
0.000502318
0.000510398
0.000519434
0.000529695
0.000541387
0.000554629
0.000569484
0.000585987
0.000604158
0.00062401
0.000645544
0.000668725
0.00069347
0.000719626
0.000747682
0.000777715
0.000808922
0.000840984
0.00087369
0.000906869
0.000940368
0.000974029
0.0010077
0.00104121
0.00107441
0.00110723
0.00113961
0.00117149
0.00120282
0.00123357
0.00126372
0.00129326
0.00132218
0.00135049
0.0013782
0.00140533
0.00143192
0.00145798
0.00148352
0.00150858
0.00153316
0.00155728
0.00158096
0.0016042
0.00162701
0.0016494
0.00167138
0.00169294
0.00171408
0.0017348
0.00175509
0.00177495
0.00179436
0.00181333
0.00183182
0.00184984
0.00186734
0.0018843
0.00190072
0.00191658
0.00193186
0.00194655
0.00196064
0.00197413
0.00198699
0.00199922
0.00201082
0.00202176
0.00203204
0.00204165
0.00205063
0.00205911
0.0020673
0.00207519
0.00208256
0.00208963
0.0020964
0.00210287
0.00210907
0.00211491
0.00212035
0.00212509
0.0021305
0.00213467
0.00214042
0.00214489
0.00215167
0.00215846
0.00216628
0.00217439
0.00218178
0.00218694
0.00219169
0.00219819
0.00220374
0.00221039
0.00221632
0.00222555
0.00223386
0.00224063
0.00224943
0.00225263
0.00226033
0.00226687
0.00227465
0.00228153
0.00228847
0.00229197
0.00229701
0.00230241
0.0023078
0.00231159
0.00231436
0.00231597
0.00231631
0.0023153
0.00231285
0.00230876
0.00230301
0.00229552
0.00228623
0.00227515
0.0022623
0.0022476
0.00223112
0.00221292
0.00219306
0.00217164
0.00214881
0.00212454
0.00209884
0.00207249
0.0020442
0.00201235
0.00197839
0.00194328
0.00190756
0.00187159
0.00183561
0.00179977
0.00176424
0.00172925
0.00169504
0.00166145
0.00162931
0.00159865
0.00156835
0.00153856
0.0015097
0.00148189
0.00145494
0.00142854
0.00140291
0.00137814
0.00135411
0.0013308
0.00130824
0.00128635
0.00126511
0.00124438
0.00122425
0.00120418
0.00118471
0.00116477
0.00114229
0.00112442
0.001048
1.41636e-05
0.000115206
0.00023765
0.00034139
0.000424852
0.000490463
0.00054128
0.000580159
0.00060967
0.000632153
0.000649722
0.000664233
0.000677264
0.000690086
0.000703676
0.000718731
0.000735725
0.000754948
0.000776557
0.000800616
0.000827136
0.000856096
0.000887453
0.000921152
0.000957123
0.0009953
0.00103564
0.00107756
0.00112049
0.0011645
0.0012094
0.00125492
0.00130089
0.00134722
0.00139376
0.00144038
0.00148705
0.00153325
0.00157892
0.00162399
0.00166839
0.00171206
0.00175499
0.00179713
0.0018385
0.00187907
0.00191887
0.0019579
0.00199619
0.00203375
0.00207061
0.00210679
0.00214231
0.00217719
0.00221146
0.00224511
0.00227818
0.00231067
0.00234259
0.00237395
0.00240474
0.00243497
0.00246463
0.00249372
0.00252222
0.00255012
0.00257741
0.00260406
0.00263007
0.0026554
0.00268003
0.00270395
0.00272714
0.00274957
0.00277123
0.0027921
0.00281216
0.00283139
0.00284977
0.00286727
0.00288388
0.00289959
0.00291442
0.00292842
0.0029417
0.00295432
0.00296627
0.00297754
0.00298819
0.00299826
0.00300777
0.00301674
0.00302519
0.00303312
0.00304057
0.0030479
0.00305481
0.00306202
0.00306904
0.00307678
0.00308461
0.00309262
0.00310036
0.00310732
0.00311327
0.00311903
0.00312518
0.00313124
0.00313766
0.00314429
0.00315192
0.00315899
0.00316555
0.00317243
0.00317747
0.00318462
0.00319192
0.00319883
0.00320393
0.0032083
0.00321202
0.00321608
0.00321968
0.0032226
0.00322422
0.00322453
0.0032234
0.00322069
0.00321625
0.00320995
0.00320165
0.00319127
0.00317879
0.00316406
0.00314702
0.00312767
0.00310599
0.00308201
0.00305581
0.00302747
0.00299711
0.00296487
0.00293086
0.00289519
0.00285818
0.00281933
0.00277791
0.00273452
0.00268987
0.00264449
0.00259876
0.00255296
0.00250731
0.002462
0.00241726
0.00237334
0.00233024
0.00228836
0.00224786
0.00220842
0.00217078
0.00213464
0.00210004
0.00206662
0.00203359
0.00200161
0.00197084
0.00194096
0.00191195
0.00188392
0.00185671
0.00183027
0.00180448
0.00177934
0.00175439
0.00172997
0.00170511
0.00167845
0.00165729
0.00158327
1.56365e-05
0.000137882
0.000283806
0.000407574
0.000508103
0.000588413
0.000651848
0.000701679
0.000740784
0.000771735
0.000796847
0.000818189
0.000837563
0.000856485
0.000876158
0.000897486
0.000921092
0.000947371
0.000976533
0.00100866
0.00104375
0.00108173
0.00112251
0.00116593
0.00121184
0.00126003
0.00131025
0.00136215
0.00141542
0.00146985
0.00152524
0.0015814
0.00163807
0.00169498
0.00175191
0.00180866
0.00186502
0.00192087
0.00197614
0.00203073
0.00208459
0.00213765
0.00218987
0.00224124
0.00229174
0.00234136
0.00239011
0.00243799
0.00248502
0.00253122
0.00257661
0.00262121
0.00266504
0.00270813
0.00275049
0.00279214
0.0028331
0.00287338
0.00291299
0.00295194
0.00299023
0.00302785
0.00306481
0.0031011
0.00313669
0.00317159
0.00320576
0.0032392
0.00327187
0.00330376
0.00333483
0.00336506
0.00339444
0.00342292
0.00345049
0.00347712
0.00350278
0.00352744
0.00355107
0.00357363
0.00359511
0.00361548
0.00363477
0.00365301
0.00367024
0.00368651
0.00370184
0.00371622
0.0037297
0.00374231
0.00375409
0.00376509
0.00377533
0.00378487
0.00379377
0.00380216
0.00381005
0.00381767
0.00382502
0.00383232
0.00383942
0.00384625
0.00385258
0.00385824
0.00386326
0.00386804
0.00387273
0.00387732
0.00388195
0.00388677
0.0038919
0.00389624
0.00390033
0.00390564
0.00391114
0.0039156
0.00391894
0.00392257
0.00392531
0.00392766
0.00392944
0.00393091
0.00393174
0.0039317
0.00393046
0.00392789
0.00392382
0.00391808
0.00391051
0.00390094
0.00388923
0.00387526
0.00385893
0.00384011
0.00381874
0.00379478
0.00376822
0.00373909
0.00370745
0.00367341
0.0036371
0.00359868
0.00355828
0.00351603
0.00347212
0.00342639
0.00337862
0.00332914
0.00327847
0.00322703
0.0031752
0.00312327
0.00307147
0.00302002
0.00296915
0.00291907
0.00286989
0.00282185
0.00277512
0.00272962
0.0026857
0.00264336
0.00260309
0.00256484
0.00252806
0.00249283
0.00245916
0.00242633
0.00239443
0.00236371
0.00233385
0.00230479
0.00227655
0.00224896
0.00222171
0.00219493
0.00216796
0.00213983
0.00211608
0.00205037
1.68054e-05
0.000157689
0.000324484
0.00046611
0.000581702
0.000675134
0.000749968
0.000809869
0.000858001
0.00089714
0.00092976
0.000958058
0.000983959
0.0010091
0.00103482
0.00106215
0.00109181
0.0011243
0.00115988
0.00119867
0.00124066
0.00128576
0.00133383
0.00138468
0.00143809
0.00149379
0.00155151
0.00161095
0.00167182
0.00173385
0.00179681
0.00186045
0.00192452
0.00198878
0.00205303
0.00211707
0.00218072
0.00224387
0.00230641
0.00236824
0.00242931
0.00248956
0.00254893
0.00260741
0.00266498
0.00272162
0.00277734
0.00283214
0.00288603
0.00293903
0.00299116
0.00304244
0.00309289
0.00314253
0.00319138
0.00323947
0.0032868
0.00333339
0.00337926
0.00342441
0.00346884
0.00351255
0.00355554
0.0035978
0.00363931
0.00368006
0.00372003
0.00375919
0.00379752
0.00383498
0.00387155
0.0039072
0.00394189
0.00397559
0.00400826
0.00403986
0.00407037
0.00409972
0.0041279
0.00415484
0.00418053
0.00420494
0.00422805
0.00424989
0.00427047
0.00428982
0.00430794
0.00432485
0.00434059
0.00435517
0.00436864
0.00438105
0.00439244
0.00440284
0.00441233
0.00442098
0.00442884
0.00443602
0.00444257
0.00444857
0.00445401
0.00445886
0.00446303
0.00446647
0.00446928
0.00447168
0.00447363
0.00447527
0.00447653
0.00447785
0.00447984
0.00448162
0.00448204
0.0044831
0.00448382
0.00448398
0.00448373
0.00448325
0.0044823
0.00448098
0.00447922
0.00447702
0.0044742
0.00447056
0.0044659
0.00446004
0.00445282
0.00444405
0.00443355
0.00442116
0.00440668
0.00438999
0.00437093
0.00434937
0.00432523
0.00429845
0.004269
0.00423689
0.00420219
0.00416498
0.0041254
0.00408359
0.00403968
0.00399383
0.00394617
0.00389673
0.00384555
0.00379288
0.00373909
0.00368455
0.00362957
0.00357444
0.0035194
0.00346467
0.00341046
0.00335699
0.00330439
0.00325286
0.00320254
0.00315348
0.00310588
0.00305981
0.00301551
0.00297308
0.0029329
0.0028949
0.002859
0.0028248
0.00279209
0.00276082
0.00273029
0.00270048
0.00267156
0.00264314
0.00261516
0.00258762
0.00256011
0.00253201
0.00250682
0.00245031
1.7766e-05
0.000174903
0.000359867
0.000517408
0.000646647
0.000752187
0.000837717
0.000907218
0.000964085
0.00101126
0.00105133
0.00108656
0.00111895
0.0011502
0.00118171
0.00121458
0.00124964
0.00128743
0.00132829
0.00137238
0.00141971
0.00147019
0.00152368
0.00157996
0.00163879
0.00169989
0.00176299
0.00182779
0.00189401
0.00196137
0.00202963
0.00209852
0.00216782
0.0022373
0.00230677
0.00237603
0.00244495
0.00251338
0.00258123
0.00264839
0.0027148
0.0027804
0.00284514
0.00290899
0.00297193
0.00303394
0.00309503
0.00315518
0.00321442
0.00327275
0.00333019
0.00338676
0.00344248
0.00349737
0.00355145
0.00360475
0.00365727
0.00370904
0.00376006
0.00381035
0.0038599
0.00390872
0.0039568
0.00400414
0.0040507
0.00409649
0.00414146
0.00418561
0.00422888
0.00427125
0.00431268
0.00435312
0.00439255
0.0044309
0.00446813
0.0045042
0.00453905
0.00457263
0.00460489
0.00463577
0.00466523
0.00469323
0.00471974
0.00474476
0.00476827
0.00479028
0.00481079
0.00482981
0.00484735
0.00486344
0.00487812
0.00489141
0.00490336
0.00491401
0.00492341
0.00493161
0.00493867
0.00494466
0.00494963
0.00495365
0.00495674
0.0049589
0.00496015
0.00496045
0.00495997
0.00495908
0.0049572
0.00495495
0.00495242
0.0049495
0.00494658
0.00494298
0.00493891
0.00493468
0.00493013
0.00492519
0.00491995
0.00491446
0.00490871
0.0049027
0.00489639
0.00488974
0.00488264
0.00487493
0.00486646
0.00485708
0.00484661
0.00483487
0.00482167
0.00480683
0.00479016
0.00477148
0.00475061
0.00472741
0.00470176
0.00467357
0.00464278
0.00460939
0.00457344
0.00453501
0.0044942
0.00445113
0.00440593
0.00435873
0.00430966
0.00425884
0.00420641
0.00415262
0.00409775
0.00404213
0.00398604
0.00392974
0.00387347
0.00381744
0.00376187
0.00370694
0.00365283
0.00359971
0.00354771
0.00349693
0.00344751
0.00339954
0.00335319
0.00330855
0.00326585
0.00322544
0.00318776
0.00315251
0.00311931
0.00308787
0.0030577
0.00302858
0.00300029
0.00297234
0.00294489
0.00291783
0.00289095
0.00286389
0.00283847
0.00279048
1.87938e-05
0.000188791
0.000389165
0.000560959
0.000702758
0.000819649
0.000915361
0.000994114
0.00105948
0.00111453
0.00116193
0.00120399
0.00124273
0.00127987
0.00131685
0.0013548
0.00139461
0.00143688
0.00148201
0.0015302
0.00158151
0.00163588
0.00169317
0.00175318
0.00181567
0.00188038
0.00194703
0.00201533
0.00208503
0.00215584
0.00222753
0.00229984
0.00237256
0.00244547
0.0025184
0.00259118
0.00266365
0.00273569
0.0028072
0.00287808
0.00294825
0.00301766
0.00308626
0.00315401
0.00322088
0.00328686
0.00335195
0.00341613
0.00347942
0.00354183
0.00360336
0.00366405
0.0037239
0.00378294
0.00384119
0.00389867
0.0039554
0.0040114
0.00406667
0.00412123
0.00417508
0.00422822
0.00428064
0.00433234
0.00438329
0.00443348
0.00448287
0.00453144
0.00457914
0.00462593
0.00467177
0.0047166
0.00476037
0.00480302
0.00484449
0.00488471
0.00492363
0.00496117
0.00499727
0.00503185
0.00506486
0.00509624
0.00512594
0.00515393
0.00518018
0.00520466
0.00522736
0.00524828
0.00526742
0.0052848
0.00530042
0.00531431
0.00532652
0.00533707
0.005346
0.00535336
0.00535921
0.00536359
0.00536658
0.00536822
0.00536854
0.00536757
0.00536545
0.00536196
0.00535728
0.00535219
0.00534643
0.00533967
0.0053321
0.00532395
0.0053153
0.00530604
0.00529627
0.00528611
0.00527559
0.00526475
0.00525368
0.00524244
0.00523108
0.00521961
0.00520805
0.00519635
0.00518447
0.0051723
0.00515972
0.00514661
0.00513281
0.00511814
0.00510242
0.00508546
0.00506703
0.00504694
0.00502499
0.00500101
0.00497483
0.00494634
0.00491544
0.0048821
0.00484635
0.00480821
0.00476777
0.00472512
0.00468035
0.00463356
0.00458487
0.00453442
0.0044824
0.00442906
0.00437468
0.00431951
0.00426383
0.00420788
0.00415187
0.00409601
0.00404052
0.00398559
0.00393138
0.00387806
0.00382578
0.00377465
0.00372478
0.00367627
0.00362926
0.00358384
0.00354017
0.00349849
0.00345944
0.00342355
0.00339019
0.00335891
0.00332923
0.00330086
0.00327354
0.00324695
0.00322094
0.00319517
0.00316966
0.00314422
0.00311953
0.00307864
1.98178e-05
0.000197478
0.00041099
0.000595948
0.000749528
0.000877162
0.000982583
0.00107022
0.00114379
0.00120648
0.00126099
0.00130966
0.00135452
0.00139728
0.00143938
0.00148197
0.00152596
0.001572
0.00162054
0.00167183
0.00172599
0.00178298
0.00184272
0.00190502
0.00196968
0.00203645
0.00210508
0.0021753
0.00224686
0.00231951
0.00239302
0.00246716
0.00254172
0.00261652
0.00269139
0.00276616
0.0028407
0.00291488
0.0029886
0.00306177
0.00313431
0.00320616
0.00327726
0.00334759
0.0034171
0.00348579
0.00355364
0.00362065
0.00368683
0.00375217
0.0038167
0.00388042
0.00394337
0.00400556
0.00406702
0.00412776
0.00418781
0.00424719
0.00430591
0.00436397
0.00442139
0.00447817
0.00453429
0.00458976
0.00464454
0.00469861
0.00475195
0.00480451
0.00485625
0.00490712
0.00495706
0.00500601
0.0050539
0.00510066
0.0051462
0.00519046
0.00523335
0.00527478
0.00531466
0.00535292
0.00538947
0.00542423
0.00545713
0.00548811
0.00551712
0.00554411
0.00556905
0.00559191
0.00561268
0.00563135
0.00564792
0.00566242
0.00567484
0.00568524
0.00569363
0.00570007
0.00570459
0.00570726
0.00570814
0.00570728
0.00570474
0.00570042
0.00569427
0.0056868
0.00567838
0.00566907
0.00565828
0.00564631
0.00563331
0.00561941
0.00560473
0.0055893
0.00557323
0.00555665
0.00553966
0.00552235
0.00550486
0.00548727
0.00546969
0.00545219
0.00543482
0.00541759
0.0054005
0.0053835
0.00536652
0.00534947
0.00533222
0.0053146
0.00529645
0.00527756
0.0052577
0.00523664
0.00521416
0.00519007
0.00516415
0.00513625
0.00510624
0.00507403
0.00503962
0.00500301
0.00496423
0.00492333
0.00488037
0.00483541
0.0047885
0.00473978
0.00468946
0.00463783
0.00458516
0.00453166
0.00447758
0.00442314
0.00436854
0.00431399
0.00425969
0.00420584
0.00415261
0.00410017
0.00404866
0.00399821
0.00394892
0.0039009
0.00385426
0.00380912
0.00376559
0.00372388
0.00368441
0.00364838
0.00361526
0.00358442
0.00355541
0.00352788
0.00350157
0.00347623
0.0034517
0.00342777
0.00340413
0.00338064
0.00335728
0.00332227
2.06497e-05
0.000203294
0.000427097
0.000623226
0.000787252
0.00092465
0.00103907
0.00113504
0.00121637
0.0012863
0.00134758
0.00140254
0.00145319
0.00150121
0.00154803
0.00159481
0.00164245
0.00169164
0.00174286
0.00179642
0.00185247
0.00191105
0.00197209
0.00203548
0.00210103
0.00216853
0.00223777
0.0023085
0.00238051
0.00245356
0.00252744
0.00260197
0.00267695
0.00275222
0.00282761
0.002903
0.00297824
0.00305322
0.00312782
0.00320196
0.00327556
0.00334856
0.0034209
0.00349255
0.00356348
0.00363366
0.0037031
0.00377178
0.0038397
0.00390688
0.00397333
0.00403906
0.0041041
0.00416847
0.00423219
0.0042953
0.00435782
0.00441976
0.00448115
0.004542
0.0046023
0.00466208
0.00472131
0.00478
0.00483811
0.00489563
0.00495252
0.00500874
0.00506423
0.00511893
0.00517278
0.0052257
0.00527761
0.00532842
0.00537804
0.00542636
0.00547329
0.00551871
0.00556253
0.00560462
0.0056449
0.00568325
0.00571958
0.0057538
0.00578583
0.0058156
0.00584304
0.00586812
0.00589079
0.00591103
0.00592882
0.00594416
0.00595705
0.00596751
0.00597557
0.00598127
0.00598464
0.00598576
0.00598467
0.00598147
0.00597601
0.00596831
0.00595869
0.00594772
0.00593524
0.00592104
0.00590524
0.00588795
0.00586933
0.00584951
0.00582862
0.00580679
0.00578415
0.00576086
0.00573707
0.00571293
0.0056886
0.00566425
0.00564002
0.00561603
0.00559241
0.00556922
0.00554652
0.00552434
0.00550266
0.00548142
0.00546053
0.00543986
0.00541926
0.00539855
0.00537745
0.00535571
0.00533311
0.00530942
0.00528439
0.0052578
0.00522947
0.00519925
0.00516711
0.00513303
0.00509696
0.00505891
0.00501889
0.00497691
0.00493293
0.00488703
0.00483946
0.00479058
0.00474061
0.00468977
0.00463825
0.00458627
0.00453401
0.00448167
0.00442946
0.00437756
0.00432617
0.00427544
0.00422554
0.00417658
0.00412869
0.00408195
0.0040365
0.00399243
0.00394989
0.00390905
0.00387026
0.00383478
0.00380234
0.00377225
0.00374408
0.00371749
0.00369223
0.00366809
0.00364493
0.00362259
0.00360088
0.00357952
0.00355782
0.0035277
2.13237e-05
0.00020695
0.000438308
0.00064335
0.00081622
0.000961977
0.00108456
0.00118811
0.00127655
0.00135315
0.00142066
0.00148141
0.00153737
0.00159019
0.00164127
0.00169174
0.0017425
0.00179425
0.0018475
0.00190259
0.00195972
0.00201898
0.00208036
0.00214377
0.0022091
0.00227616
0.00234478
0.00241475
0.00248588
0.00255798
0.00263087
0.00270438
0.0027784
0.00285279
0.00292739
0.00300209
0.00307676
0.00315127
0.00322548
0.00329932
0.00337271
0.00344559
0.00351791
0.00358963
0.00366074
0.00373122
0.00380104
0.00387022
0.00393876
0.00400666
0.00407393
0.00414061
0.00420671
0.00427226
0.0043373
0.00440186
0.00446598
0.00452968
0.00459296
0.00465586
0.00471838
0.00478053
0.00484231
0.00490371
0.00496471
0.00502527
0.00508538
0.00514497
0.00520399
0.00526237
0.00532003
0.00537689
0.00543284
0.00548778
0.0055416
0.00559417
0.00564537
0.00569507
0.00574314
0.00578943
0.00583383
0.00587618
0.00591638
0.0059543
0.00598984
0.00602288
0.00605334
0.00608115
0.00610624
0.00612856
0.00614807
0.00616475
0.0061786
0.00618961
0.0061978
0.0062032
0.00620585
0.00620581
0.00620315
0.00619791
0.00618988
0.00617951
0.00616688
0.00615233
0.00613572
0.00611704
0.00609641
0.00607395
0.0060498
0.00602413
0.00599711
0.00596888
0.00593964
0.00590956
0.00587884
0.0058477
0.00581633
0.00578495
0.00575376
0.00572297
0.00569274
0.00566324
0.0056346
0.00560689
0.00558017
0.00555447
0.0055297
0.0055058
0.00548263
0.00546012
0.00543786
0.0054156
0.00539314
0.00537022
0.00534654
0.00532184
0.00529583
0.00526825
0.00523913
0.00520838
0.00517589
0.00514159
0.00510545
0.00506747
0.00502736
0.00498521
0.0049412
0.00489594
0.00484954
0.00480218
0.00475405
0.00470533
0.00465619
0.00460682
0.00455744
0.00450822
0.00445937
0.00441106
0.00436345
0.00431667
0.00427083
0.00422604
0.00418241
0.00414008
0.0040992
0.00405995
0.0040227
0.00398858
0.00395727
0.00392823
0.00390107
0.00387551
0.00385133
0.00382836
0.00380648
0.00378556
0.00376549
0.00374609
0.00372616
0.00370009
2.18485e-05
0.000208733
0.000445118
0.000656857
0.000836867
0.000989553
0.00111894
0.001229
0.00132363
0.00140608
0.00147908
0.00154493
0.00160555
0.00166255
0.00171728
0.00177084
0.00182411
0.0018778
0.00193241
0.00198832
0.00204576
0.00210487
0.00216569
0.00222817
0.00229224
0.00235777
0.00242461
0.0024926
0.00256158
0.00263139
0.00270187
0.00277286
0.00284451
0.00291666
0.00298916
0.00306191
0.0031349
0.00320774
0.00328032
0.00335259
0.00342449
0.00349596
0.00356697
0.00363749
0.00370751
0.00377702
0.003846
0.00391446
0.00398241
0.00404987
0.00411685
0.00418337
0.00424945
0.00431514
0.0043805
0.00444559
0.00451042
0.00457503
0.00463943
0.00470365
0.00476772