/*--------------------------------*- C++ -*----------------------------------*\
| =========                 |                                                 |
| \\      /  F ield         | OpenFOAM: The Open Source CFD Toolbox           |
|  \\    /   O peration     | Version:  2406                                  |
|   \\  /    A nd           | Website:  www.openfoam.com                      |
|    \\/     M anipulation  |                                                 |
\*---------------------------------------------------------------------------*/
FoamFile
{
    version     2.0;
    format      ascii;
    arch        "LSB;label=32;scalar=64";
    class       volScalarField;
    location    "100";
    object      p;
}
// * * * * * * * * * * * * * * * * * * * * * * * * * * * * * * * * * * * * * //

dimensions      [0 2 -2 0 0 0 0];

internalField   nonuniform List<scalar> 
12225
(
-2.57268
-4.73028
-5.82333
-6.1379
-6.31592
-6.49613
-6.64597
-6.75981
-6.85401
-6.93981
-7.0206
-7.0977
-7.17274
-7.24767
-7.32534
-7.40602
-7.5049
-7.5742
-5.70283
-6.49064
-6.69632
-6.60908
-6.58528
-6.65103
-6.73586
-6.81234
-6.88437
-6.95646
-7.02846
-7.09971
-7.17071
-7.2426
-7.3174
-7.39692
-7.48673
-7.60118
-6.08286
-6.01705
-6.13705
-6.22499
-6.33452
-6.4785
-6.615
-6.72759
-6.82407
-6.91255
-6.99567
-7.07448
-7.15051
-7.22552
-7.30176
-7.38084
-7.46792
-7.56079
-5.95555
-5.86839
-6.12802
-6.32107
-6.44476
-6.56741
-6.6827
-6.77916
-6.86275
-6.94075
-7.01559
-7.08784
-7.15848
-7.22881
-7.30033
-7.37398
-7.45103
-7.52528
-5.94708
-5.96187
-6.20933
-6.37524
-6.46933
-6.56915
-6.6731
-6.76558
-6.84801
-6.92583
-7.0009
-7.07343
-7.14412
-7.21396
-7.28395
-7.35435
-7.42463
-7.49023
-6.00803
-6.05331
-6.2403
-6.38113
-6.47244
-6.56993
-6.67215
-6.76455
-6.84713
-6.92461
-6.99894
-7.07045
-7.13973
-7.20759
-7.27464
-7.34068
-7.40471
-7.46314
-6.07051
-6.11296
-6.25746
-6.3886
-6.48384
-6.57894
-6.67655
-6.76612
-6.8469
-6.92266
-6.99527
-7.06506
-7.13245
-7.19798
-7.26191
-7.32381
-7.38253
-7.4351
-6.12585
-6.16323
-6.28119
-6.40283
-6.49749
-6.58788
-6.67989
-6.76618
-6.84505
-6.91913
-6.99007
-7.05819
-7.1237
-7.1869
-7.24784
-7.30598
-7.36022
-7.40828
-6.1774
-6.21142
-6.30943
-6.41904
-6.51019
-6.59598
-6.6829
-6.76591
-6.84272
-6.91498
-6.98409
-7.05035
-7.1138
-7.17455
-7.23254
-7.28721
-7.33765
-7.38213
-6.22623
-6.25699
-6.33879
-6.43612
-6.52267
-6.60428
-6.6864
-6.76583
-6.84021
-6.91038
-6.97743
-7.04161
-7.10283
-7.16107
-7.21621
-7.26775
-7.31495
-7.35654
-6.27212
-6.29939
-6.36819
-6.45422
-6.53548
-6.61287
-6.69033
-6.76596
-6.83759
-6.90546
-6.97028
-7.03221
-7.09109
-7.14683
-7.19925
-7.24795
-7.29239
-7.33165
-6.3113
-6.33545
-6.39474
-6.47146
-6.5474
-6.62077
-6.69411
-6.7662
-6.83513
-6.90069
-6.96332
-7.02309
-7.0798
-7.13327
-7.18334
-7.22969
-7.27194
-7.3094
-6.34722
-6.3687
-6.42015
-6.48859
-6.55915
-6.6285
-6.69789
-6.76648
-6.83263
-6.89581
-6.95618
-7.01375
-7.06829
-7.1196
-7.16748
-7.21169
-7.252
-7.28795
-6.38445
-6.4033
-6.44745
-6.50768
-6.57224
-6.63702
-6.70207
-6.76675
-6.82967
-6.89006
-6.9478
-7.00283
-7.05495
-7.10391
-7.1495
-7.19153
-7.22992
-7.26436
-6.42144
-6.43773
-6.47535
-6.52781
-6.58605
-6.6458
-6.70624
-6.76668
-6.82597
-6.88321
-6.93803
-6.99022
-7.03967
-7.08614
-7.12942
-7.16931
-7.20582
-7.23883
-6.45583
-6.46978
-6.5018
-6.54732
-6.59933
-6.65389
-6.70964
-6.76571
-6.8211
-6.87496
-6.92665
-6.97589
-7.02251
-7.06645
-7.10744
-7.14535
-7.1801
-7.21177
-6.48419
-6.49618
-6.52372
-6.56348
-6.6099
-6.65955
-6.71085
-6.76275
-6.81431
-6.86473
-6.91335
-6.9597
-7.00362
-7.04505
-7.08391
-7.11999
-7.15322
-7.18366
-6.50148
-6.51206
-6.53645
-6.57206
-6.61424
-6.65996
-6.70763
-6.75608
-6.80438
-6.8518
-6.89771
-6.94156
-6.98314
-7.02242
-7.05942
-7.09395
-7.12592
-7.15535
-6.49999
-6.50989
-6.53287
-6.5666
-6.60683
-6.65057
-6.69626
-6.74275
-6.78914
-6.83469
-6.87883
-6.92102
-6.96104
-6.99888
-7.03461
-7.06808
-7.09922
-7.12803
-6.47416
-6.48457
-6.50868
-6.54405
-6.58596
-6.63095
-6.67744
-6.72447
-6.77127
-6.817
-6.86116
-6.90321
-6.94306
-6.98062
-7.01605
-7.04916
-7.07999
-7.10858
-6.43877
-6.45005
-6.47659
-6.51575
-6.56139
-6.60927
-6.65802
-6.70711
-6.75555
-6.80254
-6.84749
-6.89022
-6.93057
-6.96862
-7.00427
-7.03759
-7.06846
-7.0973
-6.39561
-6.4076
-6.43789
-6.48362
-6.53485
-6.58619
-6.63787
-6.69001
-6.7412
-6.79017
-6.83655
-6.88034
-6.92157
-6.96025
-6.99634
-7.02987
-7.0609
-7.08979
-6.34803
-6.35932
-6.39409
-6.44983
-6.50872
-6.56403
-6.61887
-6.67425
-6.72823
-6.7794
-6.82758
-6.87289
-6.91539
-6.95501
-6.99185
-7.02591
-7.05751
-7.08695
-6.29853
-6.30747
-6.34855
-6.41562
-6.48128
-6.54156
-6.602
-6.66191
-6.71855
-6.77134
-6.82084
-6.86724
-6.91048
-6.95059
-6.98765
-7.0219
-7.05354
-7.08291
-6.24706
-6.24822
-6.31088
-6.39207
-6.45501
-6.51494
-6.58164
-6.6483
-6.70951
-6.76558
-6.81784
-6.86652
-6.91145
-6.95269
-6.99049
-7.02523
-7.05728
-7.08739
-6.20057
-6.15196
-6.26753
-6.38861
-6.45056
-6.50237
-6.56612
-6.6319
-6.6925
-6.74859
-6.80154
-6.85123
-6.89722
-6.9395
-6.97831
-7.01402
-7.04693
-7.07739
-6.21753
-6.01938
-6.15232
-6.32996
-6.4347
-6.51449
-6.59298
-6.66428
-6.72621
-6.78202
-6.83367
-6.88135
-6.92487
-6.96455
-7.00073
-7.0339
-7.06469
-7.09436
-6.35834
-6.11072
-6.08702
-6.14162
-6.22391
-6.3316
-6.44183
-6.53839
-6.62193
-6.69683
-6.7648
-6.82584
-6.8802
-6.92866
-6.97188
-7.01054
-7.04563
-7.07879
-6.08627
-6.7168
-6.83528
-6.69472
-6.60626
-6.61266
-6.65374
-6.69743
-6.74168
-6.78827
-6.83547
-6.881
-6.92355
-6.96291
-6.99897
-7.03165
-7.06154
-7.09031
-3.03179
-4.79875
-5.81169
-6.09264
-6.21829
-6.36
-6.4888
-6.58829
-6.66917
-6.74071
-6.80507
-6.86233
-6.91309
-6.95808
-6.99782
-7.03259
-7.06276
-7.08708
-8.18368
-8.18281
-8.18223
-8.18362
-8.18684
-8.19111
-8.19598
-8.20101
-8.20585
-8.21044
-8.21498
-8.21975
-8.22498
-8.23072
-8.2371
-8.24425
-8.25238
-8.26162
-8.27216
-8.28413
-8.29776
-8.31319
-8.33062
-8.35014
-8.37191
-8.39597
-8.42242
-8.45119
-8.48228
-8.51549
-8.55072
-8.58765
-8.62606
-8.66555
-8.70586
-8.74656
-8.78736
-8.82786
-8.8678
-8.90684
-8.94476
-8.98132
-9.01634
-9.04966
-9.08115
-9.1107
-9.13824
-9.1637
-9.18701
-9.20816
-9.22709
-9.24383
-9.25832
-9.27058
-9.28056
-9.28833
-9.2938
-9.29705
-9.29798
-9.29672
-9.29315
-9.28742
-9.27938
-9.26923
-9.2568
-9.24234
-9.22564
-9.20698
-9.18616
-9.16347
-9.1387
-9.11217
-9.08362
-9.05343
-9.02133
-8.98777
-8.95239
-8.91559
-8.87702
-8.83715
-8.79556
-8.75257
-8.70774
-8.66149
-8.6133
-8.56351
-8.51138
-8.45688
-8.39915
-8.3379
-8.27322
-8.20464
-8.13167
-8.05365
-7.9701
-7.88031
-7.78373
-7.67956
-7.56703
-7.44513
-7.31279
-7.16881
-7.01185
-6.8405
-6.65338
-6.44939
-6.22714
-5.98569
-5.72395
-5.44103
-5.13572
-4.8072
-4.45462
-4.07751
-3.67533
-3.24794
-2.79508
-2.31702
-1.8143
-1.28781
-0.738531
-0.167806
0.422799
1.03126
1.65526
2.29203
2.93862
3.59184
4.24835
4.90473
5.5575
6.20325
6.83863
7.46048
8.06581
8.65193
9.21639
9.75712
10.2724
10.761
11.222
11.655
12.0602
12.4379
12.7889
13.1145
13.4159
13.6934
13.9477
14.1798
14.3909
14.5823
14.7552
14.9111
15.0514
15.1772
15.2898
15.3905
15.4802
15.5601
15.631
15.6939
15.7496
15.7987
15.842
15.8801
15.9136
15.9431
15.969
15.9921
16.0129
16.0319
16.0502
16.0687
16.0893
16.1145
16.1509
16.2054
16.3049
16.4385
-8.18625
-8.18498
-8.18467
-8.18724
-8.19092
-8.19436
-8.19728
-8.19975
-8.20183
-8.20359
-8.20524
-8.20699
-8.20912
-8.21193
-8.21566
-8.22038
-8.22611
-8.23292
-8.24096
-8.25042
-8.26153
-8.27449
-8.28956
-8.30693
-8.32676
-8.34912
-8.37416
-8.40185
-8.43217
-8.46495
-8.50001
-8.53704
-8.57576
-8.61577
-8.65668
-8.69807
-8.73957
-8.78076
-8.82134
-8.86097
-8.89941
-8.93642
-8.97183
-9.00548
-9.03725
-9.06704
-9.09478
-9.12042
-9.1439
-9.16519
-9.18426
-9.20111
-9.21571
-9.22806
-9.23813
-9.24595
-9.25148
-9.25475
-9.2557
-9.25441
-9.25082
-9.24499
-9.23686
-9.22655
-9.21397
-9.19926
-9.18234
-9.16337
-9.14226
-9.11918
-9.09406
-9.06708
-9.03816
-9.0075
-8.97502
-8.94094
-8.90514
-8.86781
-8.82887
-8.78852
-8.7466
-8.70328
-8.65837
-8.61203
-8.56395
-8.51423
-8.46258
-8.40879
-8.35216
-8.29261
-8.22992
-8.16373
-8.09342
-8.01837
-7.93794
-7.8515
-7.75833
-7.6576
-7.54842
-7.42974
-7.30065
-7.15999
-7.00668
-6.83944
-6.65702
-6.458
-6.24151
-6.0064
-5.75154
-5.47567
-5.17784
-4.85717
-4.51291
-4.14437
-3.75097
-3.3323
-2.88836
-2.41933
-1.9256
-1.40787
-0.867156
-0.304684
0.278082
0.879274
1.49664
2.12756
2.76916
3.41832
4.07177
4.72609
5.37785
6.02359
6.65996
7.28369
7.89176
8.48134
9.04993
9.59536
10.1158
10.6099
11.0768
11.5159
11.9271
12.3108
12.6674
12.9977
13.3032
13.585
13.8438
14.0806
14.2964
14.4926
14.6703
14.8309
14.9757
15.1059
15.2228
15.3275
15.4212
15.5047
15.5792
15.6454
15.7041
15.7561
15.8022
15.8429
15.8788
15.9105
15.9387
15.9637
15.9864
16.0073
16.0273
16.0475
16.0697
16.0964
16.1325
16.183
16.2716
16.3819
-8.18286
-8.18249
-8.1829
-8.18553
-8.18872
-8.19101
-8.19219
-8.19245
-8.19202
-8.19113
-8.19007
-8.18921
-8.18887
-8.18929
-8.1906
-8.1929
-8.1963
-8.20098
-8.20715
-8.21507
-8.22501
-8.23718
-8.2518
-8.26901
-8.28901
-8.31183
-8.33748
-8.36583
-8.39676
-8.43
-8.4653
-8.5023
-8.54067
-8.58004
-8.62006
-8.66038
-8.70069
-8.74066
-8.78
-8.81845
-8.85579
-8.89181
-8.92634
-8.95923
-8.99035
-9.0196
-9.04689
-9.07217
-9.09536
-9.11643
-9.13534
-9.15206
-9.16657
-9.17885
-9.18887
-9.19665
-9.20215
-9.20538
-9.20631
-9.20497
-9.20133
-9.19542
-9.18722
-9.17677
-9.16408
-9.14918
-9.13209
-9.11288
-9.09155
-9.06818
-9.04279
-9.01549
-8.98629
-8.95529
-8.92254
-8.88814
-8.8521
-8.8145
-8.77537
-8.73481
-8.6928
-8.64939
-8.60454
-8.55829
-8.51051
-8.46118
-8.41016
-8.35718
-8.30182
-8.24383
-8.18316
-8.1194
-8.05185
-7.98005
-7.90323
-7.82084
-7.732
-7.63595
-7.53167
-7.4182
-7.2945
-7.15947
-7.01208
-6.85108
-6.67536
-6.48353
-6.27462
-6.0474
-5.80082
-5.53357
-5.24479
-4.93347
-4.59892
-4.24021
-3.85686
-3.4484
-3.01485
-2.55628
-2.07304
-1.56567
-1.03516
-0.482622
0.0905534
0.682627
1.29145
1.91453
2.5491
3.19213
3.84044
4.49065
5.13938
5.78317
6.41865
7.04252
7.65173
8.2434
8.815
9.36431
9.88953
10.3893
10.8626
11.309
11.7282
12.1204
12.4861
12.8259
13.1409
13.4319
13.6996
13.9451
14.1692
14.3734
14.5587
14.7266
14.8782
15.015
15.1379
15.2484
15.3473
15.4359
15.515
15.5855
15.6482
15.704
15.7535
15.7975
15.8364
15.8709
15.9017
15.9292
15.9541
15.9771
15.999
16.0211
16.0448
16.0725
16.1082
16.1546
16.2293
16.3042
-8.17165
-8.17395
-8.1767
-8.18017
-8.18333
-8.18533
-8.18607
-8.18582
-8.18483
-8.18332
-8.18157
-8.17987
-8.17853
-8.17781
-8.17797
-8.17924
-8.18185
-8.18603
-8.192
-8.19997
-8.21015
-8.22269
-8.23775
-8.2554
-8.27572
-8.2987
-8.32433
-8.35248
-8.38303
-8.41571
-8.4503
-8.48646
-8.52391
-8.56228
-8.60128
-8.64056
-8.6798
-8.71871
-8.757
-8.79443
-8.83078
-8.86586
-8.89949
-8.93154
-8.96187
-8.9904
-9.01703
-9.04169
-9.06431
-9.08487
-9.1033
-9.11958
-9.13368
-9.14559
-9.15526
-9.1627
-9.16788
-9.1708
-9.17143
-9.16979
-9.16585
-9.15964
-9.15114
-9.14038
-9.12737
-9.11215
-9.09473
-9.07517
-9.05349
-9.02977
-9.00405
-8.97641
-8.94691
-8.91563
-8.88265
-8.84805
-8.81187
-8.7742
-8.7351
-8.69463
-8.6528
-8.60967
-8.56523
-8.51946
-8.47232
-8.42373
-8.37361
-8.32172
-8.26766
-8.21137
-8.15258
-8.0909
-8.02581
-7.95669
-7.88298
-7.80395
-7.71885
-7.62679
-7.52683
-7.41797
-7.29915
-7.16931
-7.02732
-6.87206
-6.70229
-6.51682
-6.31444
-6.094
-5.85434
-5.5943
-5.31289
-5.00914
-4.68222
-4.3313
-3.95583
-3.55539
-3.12988
-2.67933
-2.20401
-1.70445
-1.18156
-0.636376
-0.0702679
0.515081
1.1176
1.73488
2.36424
3.00273
3.64719
4.29432
4.94074
5.58298
6.21767
6.84151
7.4514
8.04446
8.61816
9.17033
9.69917
10.2034
10.682
11.1343
11.5602
11.9595
12.3327
12.6801
13.0026
13.301
13.5759
13.8283
14.0592
14.2699
14.4615
14.6354
14.7928
14.935
15.0631
15.1784
15.2819
15.3747
15.4577
15.5319
15.5981
15.6571
15.7096
15.7563
15.7978
15.8347
15.8676
15.8972
15.9239
15.9486
15.9721
15.9953
16.0197
16.0472
16.081
16.1214
16.1803
16.224
-8.15235
-8.15757
-8.16427
-8.1702
-8.17464
-8.17745
-8.17875
-8.17886
-8.1781
-8.17674
-8.17508
-8.17342
-8.17208
-8.17137
-8.1716
-8.17303
-8.17593
-8.18052
-8.18704
-8.19564
-8.20651
-8.2198
-8.23562
-8.25403
-8.27507
-8.29868
-8.32479
-8.35325
-8.38388
-8.41644
-8.45068
-8.4863
-8.52303
-8.56052
-8.59851
-8.63666
-8.67471
-8.71238
-8.74943
-8.78563
-8.82078
-8.85469
-8.88722
-8.91822
-8.94757
-8.97518
-9.00094
-9.0248
-9.04668
-9.06654
-9.08432
-9.09999
-9.11351
-9.12485
-9.13399
-9.14091
-9.14557
-9.14797
-9.14809
-9.14594
-9.14148
-9.13474
-9.12571
-9.11441
-9.10084
-9.08506
-9.06707
-9.04693
-9.02469
-9.00041
-8.97414
-8.94598
-8.916
-8.88429
-8.85093
-8.81603
-8.77966
-8.7419
-8.70284
-8.66254
-8.62105
-8.57841
-8.53463
-8.48969
-8.44356
-8.39616
-8.34741
-8.29708
-8.24493
-8.19059
-8.13417
-8.07499
-8.01267
-7.94655
-7.87615
-7.80067
-7.71944
-7.6315
-7.53597
-7.43183
-7.31799
-7.19342
-7.05685
-6.90726
-6.74325
-6.56379
-6.36744
-6.15322
-5.91971
-5.66601
-5.39084
-5.09341
-4.77266
-4.42802
-4.05869
-3.6644
-3.24479
-2.79999
-2.33013
-1.83582
-1.31779
-0.777143
-0.215149
0.366472
0.965698
1.58017
2.20722
2.84394
3.48717
4.13364
4.77989
5.42253
6.05807
6.68327
7.29493
7.89024
8.46664
9.02201
9.55459
10.063
10.5462
11.0034
11.4345
11.8391
12.2176
12.5704
12.8982
13.2017
13.4816
13.7388
13.9746
14.1899
14.386
14.5643
14.7259
14.8721
15.0041
15.123
15.23
15.326
15.4121
15.4892
15.558
15.6194
15.6742
15.7229
15.7663
15.805
15.8396
15.8706
15.8987
15.9245
15.9487
15.9724
15.9966
16.0228
16.0533
16.0868
16.1312
16.1498
-8.12774
-8.13581
-8.14749
-8.15667
-8.16305
-8.16734
-8.16985
-8.17097
-8.17107
-8.17048
-8.16953
-8.16854
-8.16788
-8.16785
-8.16881
-8.17103
-8.17481
-8.18036
-8.18791
-8.19762
-8.20964
-8.22407
-8.24099
-8.26042
-8.28234
-8.30669
-8.33335
-8.36214
-8.39288
-8.42531
-8.4592
-8.49426
-8.53024
-8.56683
-8.60379
-8.64082
-8.67769
-8.71415
-8.74998
-8.78496
-8.81891
-8.85167
-8.88308
-8.91301
-8.94135
-8.968
-8.99286
-9.01587
-9.03694
-9.05603
-9.07308
-9.08805
-9.10089
-9.11158
-9.12007
-9.12634
-9.13036
-9.13212
-9.13159
-9.12876
-9.12363
-9.11619
-9.10644
-9.09441
-9.0801
-9.06356
-9.0448
-9.0239
-9.00089
-8.97585
-8.94885
-8.91999
-8.88935
-8.85704
-8.82316
-8.78783
-8.75115
-8.71321
-8.67412
-8.63397
-8.59281
-8.5507
-8.50767
-8.46372
-8.4188
-8.37285
-8.32581
-8.27747
-8.2274
-8.17575
-8.12199
-8.06588
-8.00679
-7.94425
-7.8776
-7.80621
-7.72926
-7.6459
-7.55519
-7.45613
-7.34765
-7.22857
-7.09773
-6.95389
-6.79587
-6.6224
-6.4322
-6.22401
-5.99661
-5.74886
-5.47969
-5.1881
-4.87316
-4.53411
-4.17026
-3.78113
-3.36644
-2.92621
-2.4606
-1.97013
-1.4555
-0.917727
-0.358131
0.221591
0.819429
1.43302
2.05973
2.69661
3.34051
3.98812
4.63597
5.28059
5.91853
6.54646
7.16123
7.75998
8.34019
8.89967
9.4366
9.94954
10.4374
10.8993
11.335
11.7442
12.1273
12.4844
12.8164
13.1238
13.4075
13.6685
13.9078
14.1267
14.3262
14.5078
14.6725
14.8218
14.9567
15.0785
15.1881
15.2867
15.3753
15.4546
15.5256
15.589
15.6455
15.6959
15.7408
15.7808
15.8166
15.8486
15.8776
15.904
15.9285
15.9521
15.9755
15.9996
16.0259
16.0523
16.0842
16.0826
-8.10179
-8.11245
-8.12914
-8.14164
-8.15016
-8.15626
-8.16038
-8.16289
-8.16426
-8.16488
-8.16511
-8.16529
-8.1658
-8.16696
-8.16913
-8.17259
-8.17764
-8.18448
-8.19334
-8.20436
-8.21768
-8.23334
-8.2514
-8.27182
-8.29458
-8.31955
-8.34663
-8.37563
-8.40636
-8.43859
-8.4721
-8.50661
-8.54189
-8.57767
-8.6137
-8.64974
-8.68555
-8.72091
-8.75562
-8.78949
-8.82233
-8.854
-8.88436
-8.91327
-8.94063
-8.96634
-8.9903
-9.01245
-9.0327
-9.05099
-9.06727
-9.0815
-9.0936
-9.10356
-9.11133
-9.11687
-9.12015
-9.12115
-9.11984
-9.11621
-9.11024
-9.10195
-9.09132
-9.07839
-9.06315
-9.04566
-9.02596
-9.00409
-8.98013
-8.95416
-8.92625
-8.89653
-8.86508
-8.83203
-8.79751
-8.76164
-8.72455
-8.68635
-8.64718
-8.60712
-8.56628
-8.52472
-8.48248
-8.43957
-8.39597
-8.35165
-8.3065
-8.26029
-8.21286
-8.16389
-8.11331
-8.06063
-8.0052
-7.94663
-7.8842
-7.81731
-7.74507
-7.66669
-7.58121
-7.48755
-7.3847
-7.27134
-7.14641
-7.00848
-6.85655
-6.68909
-6.50501
-6.30279
-6.08142
-5.83949
-5.57615
-5.29016
-4.98075
-4.64684
-4.28793
-3.90336
-3.49297
-3.05659
-2.59447
-2.10695
-1.59478
-1.05888
-0.500626
0.0783194
0.675928
1.28983
1.91739
2.55562
3.20137
3.85122
4.50177
5.14942
5.79076
6.4224
7.04122
7.6443
8.22905
8.79324
9.33495
9.85269
10.3453
10.8119
11.252
11.6656
12.0527
12.4137
12.7493
13.0601
13.347
13.6111
13.8533
14.075
14.2773
14.4615
14.6288
14.7804
14.9177
15.0417
15.1535
15.2542
15.3446
15.4259
15.4986
15.5637
15.6217
15.6735
15.7196
15.7608
15.7974
15.8302
15.8597
15.8864
15.9109
15.9338
15.9558
15.9774
15.9993
16.0186
16.0396
16.0218
-8.07808
-8.09071
-8.11171
-8.12712
-8.13766
-8.14557
-8.15139
-8.15544
-8.15826
-8.16028
-8.16191
-8.1635
-8.16543
-8.16802
-8.17163
-8.17651
-8.18298
-8.19121
-8.20142
-8.21374
-8.22827
-8.24505
-8.26411
-8.28539
-8.30884
-8.33434
-8.36175
-8.3909
-8.42159
-8.45362
-8.48675
-8.52076
-8.5554
-8.59044
-8.62565
-8.66078
-8.69565
-8.73004
-8.76375
-8.79661
-8.82847
-8.85916
-8.88857
-8.91656
-8.94302
-8.96786
-8.99099
-9.01233
-9.03179
-9.04933
-9.06486
-9.07834
-9.0897
-9.09891
-9.10591
-9.11067
-9.11314
-9.1133
-9.11112
-9.10658
-9.09966
-9.09038
-9.07872
-9.06472
-9.04839
-9.02978
-9.00894
-8.98593
-8.96083
-8.93375
-8.90476
-8.874
-8.8416
-8.80768
-8.77239
-8.73589
-8.69832
-8.65981
-8.62052
-8.58056
-8.54005
-8.49908
-8.4577
-8.41594
-8.37381
-8.33125
-8.28818
-8.24443
-8.19967
-8.15391
-8.10676
-8.05777
-8.00643
-7.95216
-7.89438
-7.83233
-7.76523
-7.69221
-7.61227
-7.52438
-7.42735
-7.32
-7.20106
-7.06931
-6.92341
-6.76208
-6.58397
-6.3878
-6.17231
-5.93622
-5.67842
-5.39785
-5.0935
-4.76442
-4.40992
-4.02946
-3.62275
-3.18964
-2.73028
-2.245
-1.73446
-1.19963
-0.641861
-0.0628297
0.535419
1.15052
1.77978
2.42021
3.0686
3.72152
4.37549
5.02695
5.67242
6.3085
6.93199
7.53993
8.12964
8.69881
9.24548
9.76808
10.2654
10.7365
11.181
11.5986
11.9895
12.354
12.6928
13.0066
13.2963
13.563
13.8078
14.0318
14.2364
14.4227
14.592
14.7457
14.8849
15.0107
15.1242
15.2266
15.3187
15.4015
15.4757
15.5421
15.6015
15.6545
15.7017
15.7438
15.7812
15.8146
15.8443
15.8711
15.8952
15.9172
15.9376
15.9563
15.9737
15.9862
15.9979
15.967
-8.05905
-8.07303
-8.09716
-8.1148
-8.12696
-8.13644
-8.14379
-8.14931
-8.15354
-8.15696
-8.16002
-8.16305
-8.16643
-8.17047
-8.17552
-8.18182
-8.18966
-8.1992
-8.21066
-8.22413
-8.23972
-8.25744
-8.2773
-8.29925
-8.32322
-8.34908
-8.3767
-8.40589
-8.43649
-8.46828
-8.50106
-8.53458
-8.56865
-8.60302
-8.63751
-8.67187
-8.70592
-8.73946
-8.77233
-8.80434
-8.83535
-8.86521
-8.8938
-8.921
-8.94669
-8.97079
-8.99319
-9.01381
-9.03257
-9.04941
-9.06424
-9.07701
-9.08765
-9.09612
-9.10235
-9.1063
-9.10792
-9.10719
-9.10406
-9.09852
-9.09055
-9.08015
-9.06733
-9.05211
-9.03451
-9.01461
-8.99244
-8.96811
-8.94168
-8.91329
-8.88304
-8.85108
-8.81754
-8.78262
-8.74644
-8.7092
-8.67106
-8.63219
-8.59275
-8.55289
-8.51275
-8.47242
-8.432
-8.39152
-8.35099
-8.31038
-8.26962
-8.22849
-8.18687
-8.14438
-8.10103
-8.05608
-8.00913
-7.95953
-7.90673
-7.8499
-7.7883
-7.72099
-7.64693
-7.56512
-7.4742
-7.37311
-7.26035
-7.13488
-6.99512
-6.84001
-6.66795
-6.47788
-6.26818
-6.03784
-5.78541
-5.51002
-5.21039
-4.88578
-4.53527
-4.15847
-3.75489
-3.3245
-2.86724
-2.38353
-1.87393
-1.33948
-0.781483
-0.201675
0.3979
1.01486
1.64647
2.28974
2.94136
3.59798
4.256
4.91192
5.56212
6.20319
6.83181
7.44497
8.03991
8.61423
9.16594
9.69336
10.1953
10.6707
11.1193
11.5407
11.9351
12.3029
12.6446
12.961
13.2532
13.5222
13.7691
13.9951
14.2016
14.3897
14.5608
14.7161
14.8569
14.9842
15.0992
15.203
15.2964
15.3805
15.4559
15.5236
15.5841
15.6381
15.6862
15.7291
15.7671
15.8009
15.8309
15.8575
15.8811
15.902
15.9204
15.9362
15.9492
15.9553
15.959
15.9175
-8.04616
-8.0609
-8.08666
-8.10564
-8.1189
-8.12953
-8.13808
-8.14481
-8.15027
-8.15495
-8.1593
-8.16365
-8.16838
-8.17376
-8.18012
-8.1877
-8.19675
-8.20744
-8.21995
-8.23436
-8.25079
-8.26922
-8.28967
-8.31208
-8.33637
-8.36242
-8.3901
-8.41923
-8.44965
-8.48116
-8.51355
-8.54662
-8.58016
-8.61396
-8.64781
-8.68151
-8.71489
-8.74774
-8.77991
-8.81123
-8.84156
-8.87075
-8.89869
-8.92524
-8.95032
-8.9738
-8.9956
-9.01562
-9.03378
-9.05001
-9.06422
-9.07634
-9.08631
-9.09405
-9.09952
-9.10265
-9.10339
-9.10171
-9.09756
-9.09092
-9.08178
-9.07014
-9.056
-9.03941
-9.02039
-8.99901
-8.97533
-8.94947
-8.92152
-8.89163
-8.85992
-8.82658
-8.79176
-8.75565
-8.71845
-8.68036
-8.64156
-8.60227
-8.56265
-8.52289
-8.48313
-8.44352
-8.40414
-8.36505
-8.32629
-8.28781
-8.24957
-8.21139
-8.17291
-8.13427
-8.09483
-8.05429
-8.012
-7.96744
-7.91991
-7.86866
-7.81287
-7.75157
-7.68375
-7.60821
-7.52375
-7.42899
-7.32269
-7.20351
-7.07018
-6.92129
-6.75548
-6.57134
-6.3675
-6.14264
-5.89551
-5.62496
-5.32988
-5.00931
-4.6625
-4.28889
-3.88806
-3.45984
-3.00421
-2.52151
-2.01237
-1.4778
-0.919136
-0.338103
0.263239
0.882465
1.51685
2.1634
2.81881
3.47965
4.14233
4.80322
5.45867
6.10514
6.73925
7.35788
7.95821
8.53777
9.0945
9.62668
10.1331
10.6127
11.0651
11.4901
11.8877
12.2584
12.6027
12.9215
13.2159
13.4868
13.7356
13.9634
14.1714
14.3611
14.5337
14.6904
14.8325
14.9611
15.0774
15.1824
15.277
15.3621
15.4386
15.5072
15.5687
15.6236
15.6726
15.7161
15.7548
15.7889
15.8189
15.8453
15.8682
15.8878
15.9043
15.9172
15.9259
15.9262
15.923
15.8728
-8.03997
-8.05481
-8.08063
-8.09998
-8.11379
-8.12505
-8.13437
-8.14197
-8.14837
-8.15406
-8.15947
-8.16493
-8.17078
-8.17729
-8.18475
-8.19338
-8.20342
-8.21501
-8.22834
-8.24346
-8.26048
-8.27939
-8.30021
-8.32286
-8.34729
-8.37336
-8.40096
-8.42992
-8.46008
-8.49126
-8.52327
-8.5559
-8.58896
-8.62224
-8.65556
-8.68872
-8.72155
-8.75385
-8.78549
-8.81627
-8.84609
-8.87478
-8.90223
-8.9283
-8.95291
-8.97593
-8.99727
-9.01682
-9.0345
-9.05022
-9.06388
-9.07542
-9.08475
-9.0918
-9.0965
-9.09879
-9.09861
-9.09592
-9.09067
-9.08283
-9.0724
-9.05938
-9.04377
-9.02562
-9.00498
-8.98193
-8.95654
-8.92895
-8.89928
-8.86768
-8.83433
-8.79941
-8.76312
-8.72568
-8.68732
-8.64825
-8.60871
-8.56892
-8.52909
-8.48943
-8.4501
-8.41125
-8.37302
-8.33546
-8.29861
-8.26246
-8.22695
-8.19185
-8.15704
-8.12218
-8.08711
-8.05123
-8.01391
-7.97465
-7.93268
-7.88727
-7.83756
-7.78253
-7.72116
-7.65208
-7.57418
-7.48589
-7.38616
-7.27342
-7.14658
-7.00392
-6.8443
-6.666
-6.46789
-6.24833
-6.0063
-5.74036
-5.44958
-5.13281
-4.78945
-4.41875
-4.02039
-3.59402
-3.13974
-2.65779
-2.1489
-1.61401
-1.05449
-0.472007
0.131372
0.753209
1.39081
2.0411
2.70081
3.36637
4.03418
4.70045
5.36151
6.01366
6.65346
7.2777
7.88347
8.46827
9.02993
9.56675
10.0774
10.561
11.017
11.4453
11.8458
12.2191
12.5658
12.8868
13.183
13.4557
13.7061
13.9353
14.1448
14.3358
14.5096
14.6676
14.8109
14.9406
15.058
15.164
15.2596
15.3458
15.4232
15.4927
15.555
15.6107
15.6604
15.7046
15.7437
15.7781
15.8081
15.8341
15.8562
15.8746
15.8891
15.8991
15.9038
15.8989
15.8896
15.8323
-8.04009
-8.05439
-8.07892
-8.09777
-8.11153
-8.12291
-8.13252
-8.14058
-8.14757
-8.15395
-8.16013
-8.1664
-8.1731
-8.18046
-8.18876
-8.19818
-8.20895
-8.22119
-8.23507
-8.25066
-8.26803
-8.28719
-8.30816
-8.33086
-8.35524
-8.38118
-8.40857
-8.43726
-8.4671
-8.49791
-8.52952
-8.56173
-8.59435
-8.62718
-8.66005
-8.69276
-8.72515
-8.75704
-8.78829
-8.81871
-8.84817
-8.87653
-8.90367
-8.92944
-8.95375
-8.97646
-8.99748
-9.01669
-9.034
-9.04929
-9.06249
-9.0735
-9.08222
-9.08858
-9.09251
-9.09393
-9.09278
-9.08899
-9.08253
-9.07337
-9.06149
-9.04692
-9.02966
-9.00978
-8.98731
-8.96237
-8.93505
-8.90551
-8.87388
-8.84036
-8.80515
-8.76846
-8.73052
-8.69159
-8.65192
-8.61178
-8.5714
-8.53106
-8.491
-8.45143
-8.41256
-8.37456
-8.33757
-8.30166
-8.26689
-8.23325
-8.20066
-8.16894
-8.13783
-8.10725
-8.07673
-8.04571
-8.01364
-7.97987
-7.94371
-7.90436
-7.86089
-7.81232
-7.75743
-7.695
-7.62361
-7.542
-7.44878
-7.34265
-7.22213
-7.08579
-6.93213
-6.7597
-6.56705
-6.35279
-6.1156
-5.85427
-5.56765
-5.25474
-4.91474
-4.54698
-4.151
-3.72649
-3.27348
-2.79225
-2.28348
-1.7481
-1.18744
-0.603173
0.00262371
0.627527
1.26878
1.92327
2.58766
3.25834
3.93157
4.60352
5.27036
5.92834
6.5739
7.20376
7.81494
8.40484
8.97129
9.51253
10.0272
10.5145
10.9739
11.405
11.8082
12.1839
12.5327
12.8555
13.1535
13.4277
13.6794
13.91
14.1207
14.3128
14.4878
14.6468
14.7911
14.9219
15.0403
15.1473
15.2438
15.3309
15.4092
15.4795
15.5426
15.5991
15.6494
15.6941
15.7336
15.7681
15.7981
15.8237
15.8451
15.8622
15.8747
15.8819
15.8829
15.8734
15.8588
15.7957
-8.04554
-8.05874
-8.08103
-8.09865
-8.1118
-8.12277
-8.13219
-8.14029
-8.14749
-8.1542
-8.16081
-8.16758
-8.17482
-8.18273
-8.19156
-8.20149
-8.21271
-8.22534
-8.23953
-8.25533
-8.27283
-8.29203
-8.31294
-8.33551
-8.35969
-8.38536
-8.41244
-8.44078
-8.47025
-8.50067
-8.53188
-8.56367
-8.59589
-8.62832
-8.66082
-8.69318
-8.72525
-8.75685
-8.78783
-8.81803
-8.8473
-8.87548
-8.90246
-8.92808
-8.95223
-8.97477
-8.9956
-9.01458
-9.03161
-9.04657
-9.05936
-9.06987
-9.078
-9.08367
-9.08679
-9.08728
-9.08504
-9.08005
-9.07223
-9.06159
-9.04809
-9.03177
-9.01264
-8.99078
-8.96624
-8.93915
-8.90964
-8.87788
-8.84404
-8.80835
-8.77102
-8.73232
-8.69251
-8.65189
-8.61074
-8.56936
-8.52804
-8.48707
-8.44671
-8.40723
-8.36884
-8.33174
-8.29607
-8.26194
-8.22939
-8.19843
-8.16896
-8.14081
-8.11379
-8.08753
-8.06185
-8.03598
-8.00937
-7.98135
-7.95121
-7.91813
-7.88109
-7.83914
-7.79088
-7.73521
-7.67051
-7.59569
-7.5091
-7.40962
-7.29549
-7.16549
-7.01784
-6.85133
-6.6642
-6.45532
-6.22307
-5.96641
-5.68397
-5.37493
-5.03826
-4.67341
-4.27968
-3.85691
-3.40495
-2.92422
-2.41526
-1.87906
-1.31689
-0.730472
-0.121879
0.506468
1.15171
1.81073
2.48006
3.15609
3.83489
4.5126
5.18525
5.84903
6.50029
7.13564
7.75206
8.34686
8.91787
9.46327
9.98176
10.4724
10.9347
11.3686
11.7741
12.1518
12.5025
12.8269
13.1263
13.4019
13.6548
13.8865
14.0983
14.2915
14.4674
14.6274
14.7727
14.9044
15.0237
15.1316
15.2291
15.317
15.3961
15.4673
15.5311
15.5883
15.6392
15.6845
15.7242
15.759
15.7888
15.814
15.8346
15.8504
15.861
15.8656
15.8633
15.8495
15.8304
15.7626
-8.05511
-8.0668
-8.08624
-8.10207
-8.11409
-8.12418
-8.13297
-8.14069
-8.14771
-8.15439
-8.16107
-8.168
-8.17544
-8.18358
-8.19266
-8.20279
-8.21419
-8.22694
-8.24117
-8.25695
-8.27436
-8.29338
-8.31406
-8.33634
-8.36018
-8.38549
-8.41218
-8.44011
-8.46916
-8.49913
-8.5299
-8.56127
-8.59309
-8.62518
-8.65738
-8.68948
-8.72134
-8.75277
-8.78362
-8.81371
-8.84291
-8.87105
-8.898
-8.92359
-8.94769
-8.97017
-8.99089
-9.00971
-9.02651
-9.04117
-9.05355
-9.06354
-9.07103
-9.07591
-9.07808
-9.07746
-9.07397
-9.06756
-9.05818
-9.04581
-9.03043
-9.01207
-8.99076
-8.96659
-8.93964
-8.91005
-8.878
-8.84366
-8.80726
-8.76905
-8.72929
-8.68829
-8.64636
-8.60381
-8.56098
-8.51822
-8.47583
-8.43415
-8.39348
-8.35409
-8.31624
-8.28014
-8.24594
-8.21377
-8.18368
-8.15565
-8.12959
-8.10535
-8.08255
-8.06122
-8.04062
-8.02027
-7.99947
-7.97757
-7.95379
-7.92725
-7.89699
-7.86182
-7.82055
-7.77175
-7.71409
-7.64611
-7.56645
-7.47359
-7.36608
-7.24236
-7.10091
-6.94021
-6.75874
-6.55507
-6.32778
-6.07558
-5.7973
-5.4919
-5.15846
-4.79621
-4.40455
-3.98317
-3.53203
-3.05144
-2.54197
-2.00459
-1.44058
-0.85168
-0.239986
0.392013
1.04143
1.70509
2.37944
3.06079
3.74515
4.42851
5.10684
5.77621
6.4329
7.07343
7.69472
8.29406
8.86921
9.41839
9.94025
10.4339
10.8988
11.3349
11.7425
12.122
12.4742
12.8001
13.1007
13.3774
13.6314
13.8641
14.0768
14.271
14.4478
14.6088
14.755
14.8876
15.0078
15.1166
15.2149
15.3037
15.3837
15.4556
15.5202
15.5781
15.6297
15.6753
15.7154
15.7503
15.78
15.8048
15.8246
15.8392
15.848
15.8502
15.8448
15.8274
15.8043
15.7327
-8.06753
-8.07747
-8.09374
-8.10734
-8.11782
-8.12664
-8.13439
-8.14134
-8.14779
-8.15405
-8.16043
-8.16715
-8.17445
-8.18249
-8.19148
-8.20153
-8.2128
-8.22539
-8.23943
-8.25495
-8.27205
-8.29071
-8.31098
-8.3328
-8.35616
-8.38095
-8.40711
-8.43451
-8.46304
-8.49252
-8.52283
-8.55379
-8.58526
-8.61704
-8.64898
-8.68089
-8.7126
-8.74393
-8.77473
-8.80481
-8.83403
-8.8622
-8.88919
-8.91481
-8.93892
-8.96136
-8.98198
-9.00064
-9.01718
-9.03146
-9.04335
-9.05272
-9.05943
-9.06337
-9.06442
-9.06249
-9.05751
-9.04942
-9.03816
-9.02372
-9.00608
-8.98529
-8.96141
-8.93453
-8.90477
-8.87231
-8.83733
-8.80005
-8.76073
-8.71968
-8.6772
-8.63364
-8.58936
-8.54471
-8.50009
-8.45584
-8.41236
-8.36999
-8.32907
-8.2899
-8.25276
-8.21787
-8.18541
-8.15549
-8.12816
-8.10337
-8.08116
-8.0611
-8.04322
-8.02693
-8.01194
-7.99747
-7.98286
-7.96739
-7.95029
-7.93057
-7.90729
-7.87912
-7.84497
-7.80321
-7.75265
-7.69157
-7.6188
-7.53255
-7.43158
-7.31405
-7.17869
-7.02366
-6.8477
-6.64906
-6.42652
-6.17857
-5.90421
-5.60219
-5.27169
-4.91173
-4.52182
-4.10152
-3.65089
-3.17012
-2.6599
-2.12111
-1.55512
-0.963668
-0.348877
0.2867
0.940201
1.60833
2.28757
2.97401
3.66366
4.35235
5.03596
5.71046
6.37205
7.01721
7.64278
8.24607
8.82479
9.37718
9.90188
10.398
10.8651
11.3031
11.7123
12.0933
12.4468
12.7739
13.0756
13.3533
13.6082
13.8418
14.0555
14.2505
14.4283
14.5901
14.7372
14.8708
14.9919
15.1017
15.2009
15.2906
15.3715
15.4443
15.5097
15.5682
15.6204
15.6665
15.707
15.7419
15.7716
15.796
15.8151
15.8285
15.8357
15.8357
15.8275
15.8069
15.7803
15.7057
-8.08221
-8.09029
-8.10329
-8.1144
-8.12298
-8.13012
-8.13643
-8.14218
-8.14764
-8.15307
-8.15876
-8.16489
-8.17167
-8.17923
-8.18776
-8.19734
-8.20814
-8.22022
-8.23371
-8.24863
-8.26509
-8.28308
-8.30263
-8.32371
-8.3463
-8.37033
-8.39576
-8.42246
-8.45033
-8.47922
-8.50901
-8.5395
-8.57058
-8.60203
-8.63372
-8.66543
-8.69703
-8.72829
-8.75907
-8.78917
-8.81843
-8.84664
-8.87367
-8.89929
-8.92338
-8.94572
-8.96617
-8.98455
-9.00072
-9.01449
-9.02572
-9.03427
-9.03999
-9.04275
-9.04242
-9.03893
-9.03215
-9.02205
-9.00856
-8.99169
-8.97142
-8.94784
-8.921
-8.89103
-8.85807
-8.82233
-8.78401
-8.74344
-8.70088
-8.65672
-8.61128
-8.56498
-8.51819
-8.47137
-8.42489
-8.37917
-8.33469
-8.29172
-8.25076
-8.212
-8.17588
-8.14248
-8.11214
-8.08481
-8.06065
-8.03968
-8.02161
-8.00641
-7.99362
-7.983
-7.97395
-7.96571
-7.95762
-7.94891
-7.93871
-7.92608
-7.90986
-7.88893
-7.86185
-7.82729
-7.78366
-7.72955
-7.6634
-7.58375
-7.48901
-7.37765
-7.24803
-7.0986
-6.92777
-6.73402
-6.51588
-6.27203
-6.00125
-5.7024
-5.37448
-5.01659
-4.62813
-4.20877
-3.75848
-3.27753
-2.76657
-2.22652
-1.65876
-1.06501