/*--------------------------------*- C++ -*----------------------------------*\
| =========                 |                                                 |
| \\      /  F ield         | OpenFOAM: The Open Source CFD Toolbox           |
|  \\    /   O peration     | Version:  2406                                  |
|   \\  /    A nd           | Website:  www.openfoam.com                      |
|    \\/     M anipulation  |                                                 |
\*---------------------------------------------------------------------------*/
FoamFile
{
    version     2.0;
    format      ascii;
    arch        "LSB;label=32;scalar=64";
    class       surfaceScalarField;
    location    "100";
    object      phi;
}
// * * * * * * * * * * * * * * * * * * * * * * * * * * * * * * * * * * * * * //

dimensions      [0 3 -1 0 0 0 0];

oriented        oriented;

internalField   nonuniform List<scalar> 
24170
(
3.11513e-06
7.3278e-08
3.01302e-06
1.02113e-07
2.91759e-06
9.54216e-08
2.82648e-06
9.11142e-08
2.74055e-06
8.59215e-08
2.66313e-06
7.74177e-08
2.59536e-06
6.77762e-08
2.53658e-06
5.87684e-08
2.48571e-06
5.08715e-08
2.44165e-06
4.40573e-08
2.40345e-06
3.81989e-08
2.37031e-06
3.31452e-08
2.34156e-06
2.87454e-08
2.31669e-06
2.48656e-08
2.29544e-06
2.12541e-08
2.27737e-06
1.80643e-08
2.26251e-06
1.4863e-08
1.12382e-08
2.25127e-06
3.46866e-06
2.18661e-08
3.48679e-06
8.39876e-08
3.49347e-06
8.87347e-08
3.49238e-06
9.22121e-08
3.48442e-06
9.38769e-08
3.47086e-06
9.09757e-08
3.453e-06
8.56377e-08
3.43204e-06
7.97227e-08
3.4091e-06
7.38136e-08
3.38509e-06
6.80637e-08
3.36073e-06
6.25647e-08
3.33651e-06
5.73606e-08
3.31283e-06
5.24278e-08
3.28995e-06
4.77414e-08
3.26809e-06
4.31183e-08
3.24748e-06
3.86744e-08
3.22882e-06
3.3515e-08
2.67401e-08
3.21332e-06
3.66802e-06
1.63675e-08
3.68033e-06
7.16761e-08
3.69005e-06
7.90117e-08
3.7001e-06
8.21592e-08
3.70925e-06
8.47239e-08
3.71639e-06
8.38324e-08
3.72142e-06
8.06109e-08
3.72453e-06
7.66035e-08
3.72598e-06
7.23636e-08
3.72601e-06
6.80291e-08
3.72489e-06
6.36892e-08
3.72284e-06
5.94075e-08
3.72008e-06
5.51888e-08
3.71681e-06
5.10094e-08
3.71318e-06
4.67452e-08
3.70955e-06
4.23071e-08
3.70592e-06
3.71438e-08
3.06477e-08
3.70201e-06
3.92496e-06
1.67995e-08
3.93558e-06
6.10504e-08
3.94317e-06
7.14242e-08
3.95023e-06
7.50991e-08
3.95696e-06
7.79934e-08
3.96281e-06
7.79818e-08
3.96784e-06
7.55798e-08
3.97225e-06
7.21945e-08
3.97613e-06
6.84797e-08
3.97955e-06
6.46135e-08
3.98255e-06
6.06824e-08
3.98521e-06
5.6747e-08
3.98759e-06
5.28148e-08
3.98974e-06
4.88545e-08
3.99173e-06
4.47591e-08
3.99363e-06
4.03984e-08
3.9953e-06
3.54798e-08
2.96549e-08
3.99629e-06
4.20773e-06
1.6199e-08
4.21611e-06
5.26637e-08
4.22231e-06
6.5222e-08
4.22784e-06
6.95729e-08
4.23333e-06
7.24975e-08
4.23842e-06
7.28896e-08
4.24302e-06
7.09774e-08
4.24723e-06
6.79824e-08
4.25113e-06
6.45858e-08
4.25475e-06
6.09917e-08
4.25814e-06
5.72877e-08
4.26135e-06
5.35341e-08
4.26442e-06
4.97439e-08
4.26739e-06
4.58873e-08
4.27027e-06
4.18788e-08
4.27306e-06
3.76094e-08
4.27562e-06
3.29169e-08
2.76333e-08
4.27764e-06
4.51043e-06
1.48584e-08
4.51715e-06
4.59377e-08
4.52289e-06
5.9483e-08
4.52807e-06
6.43975e-08
4.53326e-06
6.73063e-08
4.53818e-06
6.79658e-08
4.54269e-06
6.64712e-08
4.54683e-06
6.38389e-08
4.55069e-06
6.07283e-08
4.55431e-06
5.73655e-08
4.55775e-06
5.38474e-08
4.56105e-06
5.02382e-08
4.56423e-06
4.656e-08
4.56733e-06
4.27916e-08
4.57033e-06
3.88729e-08
4.57321e-06
3.47271e-08
4.57586e-06
3.02731e-08
2.54569e-08
4.57803e-06
4.83415e-06
1.34246e-08
4.83994e-06
4.01525e-08
4.84561e-06
5.38114e-08
4.85077e-06
5.92328e-08
4.85589e-06
6.21878e-08
4.86078e-06
6.30675e-08
4.86531e-06
6.19438e-08
4.8695e-06
5.96515e-08
4.87341e-06
5.68114e-08
4.87711e-06
5.36671e-08
4.88063e-06
5.03274e-08
4.884e-06
4.68617e-08
4.88726e-06
4.33021e-08
4.89041e-06
3.96395e-08
4.89344e-06
3.58395e-08
4.89631e-06
3.18578e-08
4.89891e-06
2.76696e-08
2.32874e-08
4.90108e-06
5.18096e-06
1.20424e-08
5.18609e-06
3.50295e-08
5.19165e-06
4.82473e-08
5.19683e-06
5.40521e-08
5.20195e-06
5.70706e-08
5.2069e-06
5.81184e-08
5.21152e-06
5.73158e-08
5.21583e-06
5.53403e-08
5.21988e-06
5.27624e-08
5.22371e-06
4.98366e-08
5.22736e-06
4.66819e-08
5.23084e-06
4.33732e-08
5.23419e-06
3.99524e-08
5.23741e-06
3.64245e-08
5.24047e-06
3.27785e-08
5.24333e-06
2.89985e-08
5.2459e-06
2.50957e-08
2.11116e-08
5.24808e-06
5.55268e-06
1.06968e-08
5.55724e-06
3.04731e-08
5.56259e-06
4.2893e-08
5.56776e-06
4.8882e-08
5.57289e-06
5.19337e-08
5.57792e-06
5.30909e-08
5.58268e-06
5.2556e-08
5.58715e-06
5.08717e-08
5.59136e-06
4.85477e-08
5.59535e-06
4.58428e-08
5.59915e-06
4.28834e-08
5.60277e-06
3.97497e-08
5.60623e-06
3.64919e-08
5.60952e-06
3.31298e-08
5.61263e-06
2.96716e-08
5.6155e-06
2.61244e-08
5.61808e-06
2.2519e-08
1.89094e-08
5.62028e-06
5.95108e-06
9.39411e-09
5.95514e-06
2.64071e-08
5.96024e-06
3.78008e-08
5.96536e-06
4.37576e-08
5.9705e-06
4.67925e-08
5.97559e-06
4.80047e-08
5.98046e-06
4.76794e-08
5.98508e-06
4.62531e-08
5.98946e-06
4.41689e-08
5.99362e-06
4.16827e-08
5.99758e-06
3.89264e-08
6.00134e-06
3.5984e-08
6.00492e-06
3.29125e-08
6.0083e-06
2.97447e-08
6.01147e-06
2.65033e-08
6.01438e-06
2.3212e-08
6.01699e-06
1.99109e-08
1.66572e-08
6.01924e-06
6.37805e-06
8.15512e-09
6.38171e-06
2.27472e-08
6.38653e-06
3.29795e-08
6.39158e-06
3.87055e-08
6.39671e-06
4.16653e-08
6.40182e-06
4.28851e-08
6.40679e-06
4.27113e-08
6.41154e-06
4.15044e-08
6.41606e-06
3.96421e-08
6.42038e-06
3.73692e-08
6.42448e-06
3.48207e-08
6.42838e-06
3.20826e-08
6.43208e-06
2.92176e-08
6.43555e-06
2.62671e-08
6.43879e-06
2.32656e-08
6.44175e-06
2.02456e-08
6.44441e-06
1.72512e-08
1.43357e-08
6.44674e-06
5.74183e-06
7.15979e-09
5.74465e-06
1.99248e-08
5.74851e-06
2.91152e-08
5.75271e-06
3.45082e-08
5.75702e-06
3.7355e-08
5.76135e-06
3.855e-08
5.7656e-06
3.84618e-08
5.7697e-06
3.7409e-08
5.77362e-06
3.57193e-08
5.77737e-06
3.36217e-08
5.78093e-06
3.12505e-08
5.78432e-06
2.86935e-08
5.78752e-06
2.60141e-08
5.79053e-06
2.32621e-08
5.79332e-06
2.04749e-08
5.79587e-06
1.76919e-08
5.79817e-06
1.49543e-08
1.23142e-08
5.80019e-06
6.99922e-06
6.09299e-09
7.00222e-06
1.6924e-08
7.00642e-06
2.49186e-08
7.01111e-06
2.98179e-08
7.016e-06
3.2461e-08
7.02096e-06
3.35836e-08
7.02587e-06
3.35511e-08
7.03064e-06
3.26421e-08
7.03523e-06
3.1132e-08
7.03962e-06
2.92283e-08
7.04381e-06
2.70616e-08
7.04778e-06
2.47183e-08
7.05153e-06
2.22644e-08
7.05504e-06
1.97503e-08
7.05829e-06
1.72199e-08
7.06127e-06
1.47115e-08
7.06396e-06
1.22663e-08
9.92628e-09
7.06635e-06
8.53198e-06
4.96294e-09
8.53513e-06
1.3774e-08
8.53962e-06
2.04211e-08
8.54479e-06
2.46463e-08
8.55028e-06
2.69698e-08
8.55591e-06
2.79529e-08
8.56153e-06
2.79323e-08
8.56702e-06
2.7145e-08
8.57234e-06
2.58154e-08
8.57744e-06
2.4122e-08
8.58232e-06
2.2188e-08
8.58694e-06
2.00948e-08
8.59129e-06
1.79074e-08
8.59537e-06
1.5676e-08
8.59914e-06
1.34447e-08
8.6026e-06
1.12508e-08
8.60573e-06
9.12999e-09
7.11749e-09
8.60854e-06
1.04004e-05
3.7817e-09
1.04037e-05
1.04982e-08
1.04084e-05
1.56505e-08
1.04141e-05
1.90119e-08
1.04202e-05
2.0875e-08
1.04265e-05
2.16337e-08
1.04329e-05
2.15646e-08
1.04391e-05
2.08653e-08
1.04452e-05
1.97074e-08
1.04511e-05
1.82384e-08
1.04567e-05
1.65623e-08
1.04621e-05
1.47573e-08
1.04671e-05
1.28781e-08
1.04718e-05
1.0975e-08
1.04762e-05
9.08474e-09
1.04802e-05
7.2442e-09
1.04838e-05
5.47965e-09
3.81958e-09
1.04871e-05
1.2678e-05
2.55698e-09
1.26814e-05
7.09844e-09
1.26864e-05
1.06144e-08
1.26925e-05
1.29213e-08
1.26992e-05
1.41665e-08
1.27063e-05
1.45937e-08
1.27134e-05
1.44045e-08
1.27206e-05
1.3746e-08
1.27275e-05
1.2744e-08
1.27342e-05
1.15043e-08
1.27407e-05
1.0112e-08
1.27468e-05
8.62732e-09
1.27526e-05
7.09955e-09
1.2758e-05
5.56531e-09
1.2763e-05
4.05931e-09
1.27677e-05
2.60652e-09
1.27719e-05
1.23111e-09
-5.22466e-11
1.27758e-05
1.54545e-05
1.28224e-09
1.5458e-05
3.53678e-09
1.54634e-05
5.26587e-09
1.54699e-05
6.33045e-09
1.54773e-05
6.78801e-09
1.54852e-05
6.76315e-09
1.54932e-05
6.37088e-09
1.55012e-05
5.70119e-09
1.55091e-05
4.82998e-09
1.55168e-05
3.82256e-09
1.55242e-05
2.73257e-09
1.55312e-05
1.60164e-09
1.55379e-05
4.61817e-10
1.55441e-05
-6.61003e-10
1.55499e-05
-1.74512e-09
1.55553e-05
-2.77252e-09
1.55602e-05
-3.72901e-09
-4.60582e-09
1.55648e-05
1.8839e-05
-7.95659e-11
1.88428e-05
-3.02418e-10
1.88487e-05
-5.59067e-10
1.88559e-05
-9.41671e-10
1.88642e-05
-1.44713e-09
1.8873e-05
-2.05007e-09
1.88821e-05
-2.7276e-09
1.88912e-05
-3.45749e-09
1.89003e-05
-4.21747e-09
1.89091e-05
-4.98745e-09
1.89176e-05
-5.75106e-09
1.89257e-05
-6.49389e-09
1.89333e-05
-7.20444e-09
1.89405e-05
-7.87294e-09
1.89473e-05
-8.49155e-09
1.89536e-05
-9.05335e-09
1.89594e-05
-9.55299e-09
-9.98913e-09
1.89648e-05
2.29649e-05
-1.62677e-09
2.29693e-05
-4.70155e-09
2.2976e-05
-7.279e-09
2.29844e-05
-9.37901e-09
2.2994e-05
-1.10314e-08
2.30043e-05
-1.23272e-08
2.30149e-05
-1.33544e-08
2.30256e-05
-1.41704e-08
2.30362e-05
-1.48086e-08
2.30465e-05
-1.53067e-08
2.30565e-05
-1.56922e-08
2.3066e-05
-1.5989e-08
2.3075e-05
-1.62081e-08
2.30835e-05
-1.63615e-08
2.30914e-05
-1.64542e-08
2.30989e-05
-1.64947e-08
2.31058e-05
-1.64845e-08
-1.64318e-08
2.31122e-05
1.68119e-05
-2.81992e-09
1.68153e-05
-8.0688e-09
1.68204e-05
-1.24403e-08
1.68269e-05
-1.58206e-08
1.68341e-05
-1.82678e-08
1.68418e-05
-2.00146e-08
1.68497e-05
-2.12601e-08
1.68576e-05
-2.21001e-08
1.68654e-05
-2.26172e-08
1.6873e-05
-2.28838e-08
1.68803e-05
-2.29714e-08
1.68872e-05
-2.29209e-08
1.68938e-05
-2.27701e-08
1.69e-05
-2.25375e-08
1.69057e-05
-2.22467e-08
1.69112e-05
-2.19065e-08
1.69162e-05
-2.1531e-08
-2.11245e-08
1.69209e-05
1.46357e-05
-3.94273e-09
1.46389e-05
-1.12911e-08
1.46439e-05
-1.74201e-08
1.465e-05
-2.19407e-08
1.46568e-05
-2.50067e-08
1.46638e-05
-2.70943e-08
1.46711e-05
-2.84772e-08
1.46782e-05
-2.92797e-08
1.46852e-05
-2.96245e-08
1.4692e-05
-2.96449e-08
1.46985e-05
-2.94329e-08
1.47046e-05
-2.90548e-08
1.47104e-05
-2.85551e-08
1.47158e-05
-2.79724e-08
1.47209e-05
-2.73324e-08
1.47256e-05
-2.66568e-08
1.47301e-05
-2.59572e-08
-2.52469e-08
1.47342e-05
1.27411e-05
-4.95692e-09
1.27443e-05
-1.44946e-08
1.27494e-05
-2.24777e-08
1.27554e-05
-2.79104e-08
1.27617e-05
-3.13755e-08
1.27684e-05
-3.37201e-08
1.27751e-05
-3.51904e-08
1.27817e-05
-3.58864e-08
1.27881e-05
-3.601e-08
1.27942e-05
-3.57517e-08
1.28e-05
-3.52303e-08
1.28054e-05
-3.45235e-08
1.28106e-05
-3.36884e-08
1.28154e-05
-3.27748e-08
1.28199e-05
-3.18131e-08
1.2824e-05
-3.08302e-08
1.28279e-05
-2.98368e-08
-2.8846e-08
1.28315e-05
1.10917e-05
-5.72902e-09
1.10949e-05
-1.77244e-08
1.11003e-05
-2.78237e-08
1.11062e-05
-3.38244e-08
1.11122e-05
-3.74363e-08
1.11185e-05
-3.99529e-08
1.11247e-05
-4.14346e-08
1.11308e-05
-4.19655e-08
1.11366e-05
-4.18411e-08
1.11422e-05
-4.12977e-08
1.11474e-05
-4.04657e-08
1.11523e-05
-3.94327e-08
1.11569e-05
-3.82746e-08
1.11612e-05
-3.7045e-08
1.11652e-05
-3.57872e-08
1.11688e-05
-3.45226e-08
1.11723e-05
-3.32733e-08
-3.20485e-08
1.11755e-05
9.65563e-06
-6.14561e-09
9.659e-06
-2.10941e-08
9.66454e-06
-3.33698e-08
9.67027e-06
-3.95533e-08
9.67611e-06
-4.3272e-08
9.68207e-06
-4.59143e-08
9.6879e-06
-4.72717e-08
9.69348e-06
-4.75432e-08
9.69878e-06
-4.71416e-08
9.70379e-06
-4.6314e-08
9.70851e-06
-4.51814e-08
9.71292e-06
-4.38412e-08
9.71702e-06
-4.23793e-08
9.72084e-06
-4.08621e-08
9.72438e-06
-3.93304e-08
9.72767e-06
-3.78126e-08
9.73072e-06
-3.63207e-08
-3.48509e-08
9.73352e-06
8.40494e-06
-5.72879e-09
8.40928e-06
-2.54425e-08
8.41466e-06
-3.87453e-08
8.41971e-06
-4.46059e-08
8.42521e-06
-4.8774e-08
8.43099e-06
-5.16962e-08
8.43661e-06
-5.28972e-08
8.44194e-06
-5.28664e-08
8.44695e-06
-5.21577e-08
8.45165e-06
-5.102e-08
8.45604e-06
-4.95694e-08
8.46012e-06
-4.79152e-08
8.46389e-06
-4.61531e-08
8.46738e-06
-4.43545e-08
8.47061e-06
-4.25634e-08
8.47361e-06
-4.08097e-08
8.47641e-06
-3.9117e-08
-3.74988e-08
8.47905e-06
7.31364e-06
-2.08317e-09
7.32067e-06
-3.24779e-08
7.32644e-06
-4.45102e-08
7.33119e-06
-4.93648e-08
7.33651e-06
-5.40912e-08
7.3421e-06
-5.72862e-08
7.34755e-06
-5.835e-08
7.35277e-06
-5.80851e-08
7.35772e-06
-5.71175e-08
7.36238e-06
-5.56791e-08
7.36672e-06
-5.39052e-08
7.37072e-06
-5.19227e-08
7.37442e-06
-4.98483e-08
7.37782e-06
-4.77553e-08
7.38095e-06
-4.56931e-08
7.38383e-06
-4.36928e-08
7.38648e-06
-4.17647e-08
-3.98601e-08
7.38884e-06
6.36046e-06
7.5208e-09
6.37027e-06
-4.22846e-08
6.37812e-06
-5.23628e-08
6.38514e-06
-5.63851e-08
6.39221e-06
-6.11604e-08
6.39876e-06
-6.3838e-08
6.40467e-06
-6.42682e-08
6.41014e-06
-6.35541e-08
6.41525e-06
-6.22306e-08
6.42e-06
-6.0433e-08
6.42438e-06
-5.82842e-08
6.42839e-06
-5.59303e-08
6.43204e-06
-5.34968e-08
6.43534e-06
-5.10612e-08
6.43833e-06
-4.86804e-08
6.44103e-06
-4.63963e-08
6.4435e-06
-4.4241e-08
-4.22395e-08
6.44589e-06
5.53917e-06
1.38199e-08
5.5475e-06
-5.06194e-08
5.55581e-06
-6.0679e-08
5.56603e-06
-6.66043e-08
5.57719e-06
-7.23187e-08
5.58763e-06
-7.42847e-08
5.59679e-06
-7.3429e-08
5.60468e-06
-7.14488e-08
5.61138e-06
-6.89298e-08
5.61696e-06
-6.60109e-08
5.62149e-06
-6.28163e-08
5.62506e-06
-5.95019e-08
5.62776e-06
-5.6203e-08
5.62969e-06
-5.29927e-08
5.63093e-06
-4.99228e-08
5.6316e-06
-4.70631e-08
5.63178e-06
-4.44213e-08
-4.2096e-08
5.63164e-06
4.87157e-06
-3.01457e-08
4.88647e-06
-6.55177e-08
4.89719e-06
-7.14055e-08
4.90595e-06
-7.53585e-08
4.91296e-06
-7.93347e-08
4.9172e-06
-7.85264e-08
4.91798e-06
-7.42138e-08
4.91519e-06
-6.86585e-08
4.90913e-06
-6.28772e-08
4.90033e-06
-5.72099e-08
4.88935e-06
-5.1829e-08
4.87668e-06
-4.6835e-08
4.86278e-06
-4.23079e-08
4.84802e-06
-3.82397e-08
4.83271e-06
-3.46163e-08
4.81711e-06
-3.146e-08
4.80147e-06
-2.87862e-08
-2.70935e-08
4.78647e-06
4.17253e-06
4.10701e-06
4.03561e-06
3.96025e-06
3.88091e-06
3.80239e-06
3.72817e-06
3.65951e-06
3.59664e-06
3.53943e-06
3.4876e-06
3.44076e-06
3.39845e-06
3.36021e-06
3.3256e-06
3.29414e-06
3.26535e-06
3.23826e-06
1.46937e-08
-1.48089e-08
4.08236e-08
-2.62544e-08
6.78734e-08
-2.71936e-08
9.17823e-08
-2.39989e-08
1.10332e-07
-1.86819e-08
1.22649e-07
-1.24004e-08
1.28268e-07
-5.75784e-09
1.27278e-07
9.06328e-10
1.19916e-07
7.21544e-09
1.07066e-07
1.27663e-08
8.95124e-08
1.74002e-08
6.83125e-08
2.11132e-08
4.41366e-08
2.4011e-08
1.77622e-08
2.62812e-08
-1.05207e-08
2.81036e-08
-4.07012e-08
3.00903e-08
-7.3334e-08
3.24649e-08
-1.0833e-07
3.49237e-08
-1.46062e-07
3.75883e-08
-1.86589e-07
4.04737e-08
-2.3024e-07
4.35232e-08
-2.76929e-07
4.66532e-08
-3.26805e-07
4.97677e-08
-3.7962e-07
5.27904e-08
-4.35349e-07
5.56289e-08
-4.9357e-07
5.8196e-08
-5.54089e-07
6.04143e-08
-6.16354e-07
6.22345e-08
-6.8007e-07
6.36124e-08
-7.44634e-07
6.45275e-08
-8.09718e-07
6.49737e-08
-8.74741e-07
6.49789e-08
-9.39426e-07
6.45767e-08
-1.0033e-06
6.38229e-08
-1.06618e-06
6.27681e-08
-1.12772e-06
6.14758e-08
-1.18782e-06
5.99968e-08
-1.24626e-06
5.83902e-08
-1.30306e-06
5.66985e-08
-1.35808e-06
5.49702e-08
-1.4114e-06
5.32334e-08
-1.46296e-06
5.15224e-08
-1.51289e-06
4.98517e-08
-1.56117e-06
4.82438e-08
-1.60795e-06
4.67025e-08
-1.65323e-06
4.52413e-08
-1.69717e-06
4.3857e-08
-1.73976e-06
4.25576e-08
-1.78117e-06
4.13357e-08
-1.82141e-06
4.0195e-08
-1.8606e-06
3.91242e-08
-1.89877e-06
3.81256e-08
-1.93602e-06
3.71876e-08
-1.97239e-06
3.6312e-08
-2.00796e-06
3.54873e-08
-2.04274e-06
3.47162e-08
-2.07681e-06
3.39883e-08
-2.1102e-06
3.3307e-08
-2.14295e-06
3.26624e-08
-2.1751e-06
3.20588e-08
-2.20669e-06
3.14876e-08
-2.23773e-06
3.09536e-08
-2.26828e-06
3.04497e-08
-2.29837e-06
2.99809e-08
-2.328e-06
2.95412e-08
-2.35725e-06
2.91355e-08
-2.3861e-06
2.87598e-08
-2.41462e-06
2.84185e-08
-2.44281e-06
2.81095e-08
-2.47075e-06
2.78367e-08
-2.49842e-06
2.75996e-08
-2.52591e-06
2.74011e-08
-2.55322e-06
2.72413e-08
-2.58044e-06
2.71195e-08
-2.60754e-06
2.70372e-08
-2.63465e-06
2.6991e-08
-2.66171e-06
2.69835e-08
-2.68885e-06
2.70113e-08
-2.716e-06
2.70742e-08
-2.74329e-06
2.71589e-08
-2.77063e-06
2.72644e-08
-2.79813e-06
2.73722e-08
-2.82565e-06
2.74688e-08
-2.85338e-06
2.75974e-08
-2.88129e-06
2.78526e-08
-2.90941e-06
2.8009e-08
-2.93746e-06
2.80306e-08
-2.9656e-06
2.81271e-08
-2.99376e-06
2.82315e-08
-3.02186e-06
2.82487e-08
-3.04991e-06
2.81828e-08
-3.07777e-06
2.79646e-08
-3.10537e-06
2.76863e-08
-3.13235e-06
2.70678e-08
-3.15879e-06
2.65047e-08
-3.18433e-06
2.5613e-08
-3.20893e-06
2.46359e-08
-3.23229e-06
2.33964e-08
-3.25426e-06
2.19672e-08
-3.27478e-06
2.04909e-08
-3.29325e-06
1.83874e-08
-3.30953e-06
1.61372e-08
-3.32304e-06
1.33016e-08
-3.33306e-06
9.72741e-09
-3.33933e-06
5.95615e-09
-3.34224e-06
2.5472e-09
-3.34147e-06
-1.09283e-09
-3.3371e-06
-4.70662e-09
-3.32881e-06
-8.55633e-09
-3.31657e-06
-1.25199e-08
-3.30039e-06
-1.63902e-08
-3.27981e-06
-2.07943e-08
-3.25462e-06
-2.53377e-08
-3.22448e-06
-3.02941e-08
-3.18926e-06
-3.52965e-08
-3.14933e-06
-4.0011e-08
-3.10413e-06
-4.52112e-08
-3.05341e-06
-5.07262e-08
-2.9973e-06
-5.60293e-08
-2.93586e-06
-6.13926e-08
-2.86908e-06
-6.6749e-08
-2.79687e-06
-7.22683e-08
-2.71918e-06
-7.77301e-08
-2.63611e-06
-8.31274e-08
-2.54768e-06
-8.83759e-08
-2.45411e-06
-9.34841e-08
-2.35552e-06
-9.83878e-08
-2.25221e-06
-1.03085e-07
-2.14439e-06
-1.07514e-07
-2.0324e-06
-1.11663e-07
-1.91654e-06
-1.15478e-07
-1.79722e-06
-1.18945e-07
-1.67479e-06
-1.22023e-07
-1.54968e-06
-1.24699e-07
-1.42233e-06
-1.26945e-07
-1.29318e-06
-1.28755e-07
-1.16268e-06
-1.30127e-07
-1.03128e-06
-1.31069e-07
-8.99394e-07
-1.31597e-07
-7.67447e-07
-1.31729e-07
-6.35775e-07
-1.31505e-07
-5.04817e-07
-1.30857e-07
-3.74951e-07
-1.29807e-07
-2.46081e-07
-1.28866e-07
-1.17592e-07
-1.28516e-07
1.15943e-08
-1.29249e-07
1.40443e-07
-1.28923e-07
2.66374e-07
-1.26022e-07
3.88391e-07
-1.22108e-07
5.06047e-07
-1.17754e-07
6.1914e-07
-1.13188e-07
7.27566e-07
-1.08523e-07
8.31299e-07
-1.03825e-07
9.30357e-07
-9.91482e-08
1.02482e-06
-9.45501e-08
1.11478e-06
-9.00346e-08
1.20032e-06
-8.56194e-08
1.2816e-06
-8.13495e-08
1.35877e-06
-7.72384e-08
1.43197e-06
-7.32554e-08
1.50132e-06
-6.94112e-08
1.56699e-06
-6.57142e-08
1.62913e-06
-6.21834e-08
1.6879e-06
-5.88079e-08
1.74344e-06
-5.55699e-08
1.79587e-06
-5.24568e-08
1.84531e-06
-4.94716e-08
1.89189e-06
-4.65955e-08
1.93568e-06
-4.38111e-08
1.97676e-06
-4.10911e-08
2.01513e-06
-3.83975e-08
2.05078e-06
-3.56579e-08
2.08353e-06
-3.277e-08
2.11308e-06
-2.95613e-08
2.13874e-06
-2.56946e-08
2.15929e-06
-2.05719e-08
2.1711e-06
-1.18472e-08
2.1654e-06
5.66987e-09
2.12059e-06
4.47836e-08
1.12086e-07
2.00849e-06
2.7481e-08
-4.23673e-08
4.66204e-08
-4.54626e-08
5.72311e-08
-3.78606e-08
6.21052e-08
-2.89111e-08
6.25532e-08
-1.91748e-08
5.91015e-08
-8.98309e-09
5.19709e-08
1.32769e-09
4.13476e-08
1.14948e-08
2.7221e-08
2.12958e-08
9.44273e-09
3.05087e-08
-1.21537e-08
3.89498e-08
-3.76144e-08
4.65382e-08
-6.69657e-08
5.33177e-08
-1.00156e-07
5.94379e-08
-1.37219e-07
6.51241e-08
-1.7779e-07
7.06296e-08
-2.21501e-07
7.61339e-08
-2.68314e-07
8.17074e-08
-3.18135e-07
8.73699e-08
-3.70761e-07
9.30742e-08
-4.25992e-07
9.87175e-08
-4.83525e-07
1.04164e-07
-5.43058e-07
1.09267e-07
-6.04173e-07
1.13887e-07
-6.66476e-07
1.17897e-07
-7.29496e-07
1.21194e-07
-7.92828e-07
1.23709e-07
-8.56025e-07
1.25409e-07
-9.18741e-07
1.26288e-07
-9.80608e-07
1.26368e-07
-1.04138e-06
1.257e-07
-1.10079e-06
1.24368e-07
-1.15873e-06
1.22465e-07
-1.21503e-06
1.20096e-07
-1.26967e-06
1.17359e-07
-1.32258e-06
1.14353e-07
-1.37379e-06
1.11163e-07
-1.4233e-06
1.07869e-07
-1.47118e-06
1.04537e-07
-1.51747e-06
1.01225e-07
-1.56225e-06
9.79759e-08
-1.60558e-06
9.48256e-08
-1.64756e-06
9.17969e-08
-1.68825e-06
8.89078e-08
-1.72775e-06
8.61664e-08
-1.76611e-06
8.35786e-08
-1.80343e-06
8.1143e-08
-1.83976e-06
7.88581e-08
-1.87518e-06
7.67167e-08
-1.90973e-06
7.47137e-08
-1.94347e-06
7.28391e-08
-1.97646e-06
7.10859e-08
-2.00876e-06
6.94436e-08
-2.04039e-06
6.79056e-08
-2.0714e-06
6.64619e-08
-2.10183e-06
6.51071e-08
-2.13172e-06
6.38328e-08
-2.1611e-06
6.26353e-08
-2.19e-06
6.15074e-08
-2.21843e-06
6.0447e-08
-2.24645e-06
5.94488e-08
-2.27406e-06
5.85125e-08
-2.3013e-06
5.76342e-08
-2.32819e-06
5.68148e-08
-2.35476e-06
5.60517e-08
-2.38103e-06
5.53474e-08
-2.40703e-06
5.47004e-08
-2.43278e-06
5.4114e-08
-2.45831e-06
5.35875e-08
-2.48365e-06
5.31242e-08
-2.50882e-06
5.27235e-08
-2.53386e-06
5.23874e-08
-2.55878e-06
5.21145e-08
-2.58361e-06
5.19049e-08
-2.60838e-06
5.17546e-08
-2.63311e-06
5.16613e-08
-2.6578e-06
5.1622e-08
-2.68248e-06
5.16306e-08
-2.70714e-06
5.16778e-08
-2.7318e-06
5.17519e-08
-2.75643e-06
5.18426e-08
-2.78106e-06
5.19374e-08
-2.80567e-06
5.20288e-08
-2.83026e-06
5.21269e-08
-2.8547e-06
5.2239e-08
-2.87901e-06
5.22749e-08
-2.9032e-06
5.21848e-08
-2.9271e-06
5.20241e-08
-2.9506e-06
5.17869e-08
-2.97367e-06
5.13885e-08
-2.9962e-06
5.07942e-08
-3.01813e-06
4.99535e-08
-3.03924e-06
4.88512e-08
-3.05956e-06
4.74327e-08
-3.07875e-06
4.57298e-08
-3.09678e-06
4.36701e-08
-3.11338e-06
4.12572e-08
-3.12844e-06
3.84621e-08
-3.14176e-06
3.52705e-08
-3.15299e-06
3.16954e-08
-3.16225e-06
2.75662e-08
-3.16918e-06
2.29615e-08
-3.17386e-06
1.78029e-08
-3.17643e-06
1.21054e-08
-3.17683e-06
6.11006e-09
-3.17449e-06
-1.87623e-11
-3.16921e-06
-6.61074e-09
-3.16047e-06
-1.36557e-08
-3.14811e-06
-2.11122e-08
-3.1318e-06
-2.89903e-08
-3.11112e-06
-3.72316e-08
-3.08606e-06
-4.59768e-08
-3.05634e-06
-5.51702e-08
-3.02192e-06
-6.47926e-08
-2.98263e-06
-7.46598e-08
-2.93798e-06
-8.46942e-08
-2.88811e-06
-9.51091e-08
-2.83296e-06
-1.05847e-07
-2.77234e-06
-1.16618e-07
-2.70617e-06
-1.27519e-07
-2.63442e-06
-1.385e-07
-2.55715e-06
-1.49572e-07
-2.47434e-06
-1.60588e-07
-2.38601e-06
-1.71484e-07
-2.29224e-06
-1.82128e-07
-2.19319e-06
-1.92472e-07
-2.08904e-06
-2.02429e-07
-1.98005e-06
-2.11941e-07
-1.86647e-06
-2.20919e-07
-1.74864e-06
-2.29304e-07
-1.6269e-06
-2.37007e-07
-1.50165e-06
-2.43973e-07
-1.37332e-06
-2.50135e-07
-1.24235e-06
-2.5545e-07
-1.10921e-06
-2.59873e-07
-9.74369e-07
-2.63389e-07
-8.38321e-07
-2.65984e-07
-7.01548e-07
-2.67682e-07
-5.6451e-07
-2.68502e-07
-4.27648e-07
-2.68497e-07
-2.91338e-07
-2.67746e-07
-1.55681e-07
-2.66478e-07
-2.06892e-08
-2.64779e-07
1.12958e-07
-2.62522e-07
2.44043e-07
-2.59619e-07
3.70772e-07
-2.56017e-07
4.92862e-07
-2.51052e-07
6.11272e-07
-2.44485e-07
7.26018e-07
-2.36904e-07
8.36928e-07
-2.28723e-07
9.43865e-07
-2.20178e-07
1.04673e-06
-2.11444e-07
1.14547e-06
-2.02623e-07
1.24008e-06
-1.93821e-07
1.33059e-06
-1.85112e-07
1.41705e-06
-1.76545e-07
1.49953e-06
-1.68146e-07
1.5781e-06
-1.59975e-07
1.65288e-06
-1.52053e-07
1.72396e-06
-1.44383e-07
1.79149e-06
-1.36979e-07
1.8556e-06
-1.29854e-07
1.9164e-06
-1.23021e-07
1.97404e-06
-1.16475e-07
2.02864e-06
-1.10187e-07
2.0803e-06
-1.04145e-07
2.12915e-06
-9.83392e-08
2.17528e-06
-9.2743e-08
2.21877e-06
-8.73168e-08
2.25969e-06
-8.20156e-08
2.29803e-06
-7.67557e-08
2.33377e-06
-7.14075e-08
2.36676e-06
-6.57681e-08
2.3967e-06
-5.95204e-08
2.42305e-06
-5.20623e-08
2.44482e-06
-4.23584e-08
2.46076e-06
-2.78093e-08
2.47026e-06
-3.84933e-09
2.47199e-06
4.30303e-08
1.32598e-07
2.45147e-06
1.66831e-08
-5.9112e-08
2.27775e-08
-5.16059e-08
2.24037e-08
-3.75249e-08
1.75673e-08
-2.40989e-08
9.29977e-09
-1.09356e-08
-1.84702e-09
2.1429e-09
-1.56586e-08
1.51131e-08
-3.20663e-08
2.78827e-08
-5.11336e-08
4.03377e-08
-7.29893e-08
5.23453e-08
-9.78447e-08
6.37807e-08
-1.25892e-07
7.45667e-08
-1.57297e-07
8.46989e-08
-1.9212e-07
9.42437e-08
-2.30333e-07
1.03314e-07
-2.71751e-07
1.12031e-07
-3.16129e-07
1.20488e-07
-3.63164e-07
1.28726e-07
-4.12545e-07
1.36728e-07
-4.63905e-07
1.44419e-07
-5.16892e-07
1.51682e-07
-5.71119e-07
1.58376e-07
-6.26229e-07
1.64355e-07
-6.81846e-07
1.69489e-07
-7.37644e-07
1.73672e-07
-7.93299e-07
1.76832e-07
-8.48547e-07
1.78933e-07
-9.03128e-07
1.79973e-07
-9.56853e-07
1.79988e-07
-1.00956e-06
1.79058e-07
-1.06117e-06
1.77282e-07
-1.11159e-06
1.74772e-07
-1.1608e-06
1.71649e-07
-1.20876e-06
1.68034e-07
-1.25547e-06
1.64045e-07
-1.30093e-06
1.5979e-07
-1.34516e-06
1.55369e-07
-1.38818e-06
1.50867e-07
-1.43002e-06
1.46357e-07
-1.47072e-06
1.419e-07
-1.5103e-06
1.37543e-07
-1.54882e-06
1.33325e-07
-1.58632e-06
1.2927e-07
-1.62282e-06
1.25397e-07
-1.65839e-06
1.21716e-07
-1.69306e-06
1.18231e-07
-1.72689e-06
1.14943e-07
-1.75989e-06
1.11847e-07
-1.79214e-06
1.08937e-07
-1.82365e-06
1.06204e-07
-1.85447e-06
1.03639e-07
-1.88463e-06
1.01231e-07
-1.91418e-06
9.89694e-08
-1.94315e-06
9.68447e-08
-1.97156e-06
9.48461e-08
-1.99945e-06
9.29649e-08
-2.02684e-06
9.11925e-08
-2.05375e-06
8.95219e-08
-2.08022e-06
8.79462e-08
-2.10627e-06
8.64608e-08
-2.13192e-06
8.50608e-08
-2.15718e-06
8.37438e-08
-2.18209e-06
8.25069e-08
-2.20666e-06
8.13496e-08
-2.23092e-06
8.02706e-08
-2.25488e-06
7.92709e-08
-2.27857e-06
7.83509e-08
-2.302e-06
7.75124e-08
-2.3252e-06
7.67565e-08
-2.3482e-06
7.6085e-08
-2.37101e-06
7.54984e-08
-2.39365e-06
7.49976e-08
-2.41615e-06
7.45814e-08
-2.43852e-06
7.42477e-08
-2.46079e-06
7.39928e-08
-2.48298e-06
7.3812e-08
-2.50509e-06
7.36988e-08
-2.52714e-06
7.36441e-08
-2.54914e-06
7.36356e-08
-2.57108e-06
7.36588e-08
-2.59298e-06
7.36988e-08
-2.61481e-06
7.37397e-08
-2.63659e-06
7.37673e-08
-2.65827e-06
7.37707e-08
-2.6798e-06
7.37359e-08
-2.70117e-06
7.36127e-08
-2.72236e-06
7.33484e-08
-2.74328e-06
7.29367e-08
-2.76382e-06
7.23543e-08
-2.78393e-06
7.15494e-08
-2.80355e-06
7.04582e-08
-2.8226e-06
6.90311e-08
-2.84096e-06
6.72354e-08
-2.85854e-06
6.50288e-08
-2.87517e-06
6.23837e-08
-2.89076e-06
5.92579e-08
-2.90512e-06
5.56238e-08
-2.91812e-06
5.14501e-08
-2.92959e-06
4.67155e-08
-2.93933e-06
4.13942e-08
-2.94727e-06
3.54275e-08
-2.95321e-06
2.87992e-08
-2.95705e-06
2.1497e-08
-2.95864e-06
1.35328e-08
-2.95769e-06
4.97567e-09
-2.95374e-06
-4.13137e-09
-2.9466e-06
-1.39266e-08
-2.93602e-06
-2.43825e-08
-2.92181e-06
-3.54743e-08
-2.90367e-06
-4.72363e-08
-2.88136e-06
-5.96572e-08
-2.85468e-06
-7.27375e-08
-2.82347e-06
-8.64717e-08
-2.78754e-06
-1.0077e-07
-2.74673e-06
-1.15527e-07
-2.70075e-06
-1.30688e-07
-2.64958e-06
-1.46291e-07
-2.59311e-06
-1.62296e-07
-2.53119e-06
-1.7851e-07
-2.46375e-06
-1.94932e-07
-2.39077e-06
-2.11484e-07
-2.31228e-06
-2.28095e-07
-2.22828e-06
-2.44631e-07
-2.1388e-06
-2.60976e-07
-2.04394e-06
-2.76975e-07
-1.94385e-06
-2.9251e-07
-1.83874e-06
-3.07469e-07
-1.72885e-06
-3.21729e-07
-1.61447e-06
-3.35177e-07
-1.49594e-06
-3.47694e-07
-1.37364e-06
-3.59166e-07
-1.24797e-06
-3.69489e-07
-1.11938e-06
-3.78573e-07
-9.88333e-07
-3.86342e-07
-8.5532e-07
-3.9274e-07
-7.20832e-07
-3.97737e-07
-5.85371e-07
-4.01321e-07
-4.49419e-07
-4.03525e-07
-3.13447e-07
-4.04388e-07
-1.77827e-07
-4.04044e-07
-4.28884e-08
-4.02631e-07
9.08333e-08
-4.0015e-07
2.2258e-07
-3.96492e-07
3.51692e-07
-3.91603e-07
4.77601e-07
-3.8551e-07
5.99736e-07
-3.78134e-07
7.17955e-07
-3.69263e-07
8.3245e-07
-3.5897e-07
9.43184e-07
-3.47635e-07
1.05006e-06
-3.35594e-07
1.15298e-06
-3.23103e-07
1.2519e-06
-3.10358e-07
1.34678e-06
-2.97509e-07
1.43764e-06
-2.8468e-07
1.5245e-06
-2.71977e-07
1.60743e-06
-2.59471e-07
1.68649e-06
-2.47212e-07
1.76177e-06
-2.3526e-07
1.83339e-06
-2.23671e-07
1.90147e-06
-2.12464e-07
1.96614e-06
-2.01653e-07
2.02753e-06
-1.91241e-07
2.08576e-06
-1.81247e-07
2.14095e-06
-1.71664e-07
2.19323e-06
-1.62467e-07
2.24272e-06
-1.53632e-07
2.28953e-06
-1.45141e-07
2.33374e-06
-1.36953e-07
2.37544e-06
-1.29018e-07
2.4147e-06
-1.21264e-07
2.45151e-06
-1.13572e-07
2.48587e-06
-1.05754e-07
2.51763e-06
-9.75319e-08
2.54657e-06
-8.84627e-08
2.57228e-06
-7.77734e-08
2.59407e-06
-6.41528e-08
2.61111e-06
-4.48565e-08
2.6227e-06
-1.54372e-08
2.6307e-06
3.50236e-08
1.24849e-07
2.63845e-06
2.22517e-09
-6.13924e-08
-3.71903e-09
-4.5701e-08
-1.26994e-08
-2.85743e-08
-2.4181e-08
-1.2636e-08
-3.78655e-08
2.72802e-09
-5.3577e-08
1.78399e-08
-7.12828e-08
3.28002e-08
-9.10135e-08
4.76001e-08
-1.1287e-07
6.21771e-08
-1.36979e-07
7.6441e-08
-1.63511e-07
9.02958e-08
-1.92619e-07
1.03662e-07
-2.24428e-07
1.16492e-07
-2.5897e-07
1.28773e-07
-2.96195e-07
1.40522e-07
-3.35935e-07
1.51759e-07
-3.77957e-07
1.62494e-07
-4.2195e-07
1.72706e-07
-4.67581e-07
1.82342e-07
-5.14484e-07
1.9131e-07
-5.62317e-07
1.99498e-07
-6.10736e-07
2.06783e-07
-6.59446e-07
2.13048e-07
-7.08166e-07
2.18195e-07
-7.56671e-07
2.22158e-07
-8.04758e-07
2.24904e-07
-8.52281e-07
2.26436e-07
-8.99118e-07
2.26794e-07
-9.45201e-07
2.26051e-07
-9.90464e-07
2.24307e-07
-1.03488e-06
2.2168e-07
-1.07842e-06
2.18297e-07
-1.12108e-06
2.14285e-07
-1.16283e-06
2.09773e-07
-1.20369e-06
2.04881e-07
-1.24363e-06
1.99722e-07
-1.28268e-06
1.94397e-07
-1.32082e-06
1.88997e-07
-1.35808e-06
1.83597e-07
-1.39445e-06
1.78261e-07
-1.42996e-06
1.7304e-07
-1.46462e-06
1.67973e-07
-1.49846e-06
1.63088e-07
-1.53148e-06
1.58406e-07
-1.56372e-06
1.5394e-07
-1.5952e-06
1.49695e-07
-1.62595e-06
1.45673e-07
-1.65599e-06
1.41871e-07
-1.68535e-06
1.38283e-07
-1.71406e-06
1.34901e-07
-1.74216e-06
1.31713e-07
-1.76965e-06
1.2871e-07
-1.79658e-06
1.2588e-07
-1.82297e-06
1.23212e-07
-1.84884e-06
1.20695e-07
-1.87422e-06
1.18318e-07
-1.89912e-06
1.16072e-07
-1.92357e-06
1.13949e-07
-1.94759e-06
1.11941e-07
-1.9712e-06
1.10043e-07
-1.99442e-06
1.08249e-07
-2.01725e-06
1.06557e-07
-2.03974e-06
1.04963e-07
-2.06188e-06
1.03467e-07
-2.08371e-06
1.02068e-07
-2.10523e-06
1.00767e-07
-2.12647e-06
9.95644e-08
-2.14745e-06
9.84631e-08
-2.16818e-06
9.74645e-08
-2.1887e-06
9.65703e-08
-2.209e-06
9.57817e-08
-2.22913e-06
9.50987e-08
-2.24909e-06
9.45205e-08
-2.26892e-06
9.40448e-08
-2.28861e-06
9.36667e-08
-2.30821e-06
9.33797e-08
-2.32771e-06
9.31757e-08
-2.34714e-06
9.30426e-08
-2.3665e-06
9.29657e-08
-2.38579e-06
9.29272e-08
-2.40503e-06
9.29082e-08
-2.4242e-06
9.28877e-08
-2.44331e-06
9.28447e-08
-2.46232e-06
9.27574e-08
-2.48121e-06
9.25992e-08
-2.49995e-06
9.23275e-08
-2.51852e-06
9.18909e-08
-2.53684e-06
9.12532e-08
-2.55485e-06
9.03811e-08
-2.57248e-06
8.92076e-08
-2.58968e-06
8.76846e-08
-2.60638e-06
8.57444e-08
-2.62248e-06
8.33409e-08
-2.63787e-06
8.04249e-08
-2.65244e-06
7.69496e-08
-2.66605e-06
7.28675e-08
-2.67858e-06
6.81364e-08
-2.68987e-06
6.27156e-08
-2.69976e-06
5.65707e-08
-2.70809e-06
4.9663e-08
-2.71469e-06
4.19457e-08
-2.71938e-06
3.33833e-08
-2.72198e-06
2.3953e-08
-2.72225e-06
1.365e-08
-2.71992e-06
2.48538e-09
-2.71467e-06
-9.53212e-09
-2.70628e-06
-2.2453e-08
-2.69454e-06
-3.62513e-08
-2.6792e-06
-5.09247e-08
-2.66004e-06
-6.64887e-08