/*--------------------------------*- C++ -*----------------------------------*\
| =========                 |                                                 |
| \\      /  F ield         | OpenFOAM: The Open Source CFD Toolbox           |
|  \\    /   O peration     | Version:  2406                                  |
|   \\  /    A nd           | Website:  www.openfoam.com                      |
|    \\/     M anipulation  |                                                 |
\*---------------------------------------------------------------------------*/
FoamFile
{
    version     2.0;
    format      ascii;
    arch        "LSB;label=32;scalar=64";
    class       volVectorField;
    location    "100";
    object      U;
}
// * * * * * * * * * * * * * * * * * * * * * * * * * * * * * * * * * * * * * //

dimensions      [0 1 -1 0 0 0 0];

internalField   nonuniform List<vector> 
12225
(
(9.84122 -0.956294 0)
(9.59261 -0.887899 0)
(9.31778 -0.594485 0)
(9.01511 -0.37002 0)
(8.72639 -0.226013 0)
(8.46805 -0.137919 0)
(8.24127 -0.0845541 0)
(8.0434 -0.0517127 0)
(7.87191 -0.0313365 0)
(7.72347 -0.0187262 0)
(7.59502 -0.0108125 0)
(7.48354 -0.00591009 0)
(7.38683 -0.00295663 0)
(7.30302 -0.00131377 0)
(7.23048 -0.000535488 0)
(7.17031 -0.00101854 0)
(7.11341 0.00157863 0)
(7.08925 -0.0180609 0)
(10.0721 0.255827 0)
(10.1868 0.418344 0)
(10.2285 0.384097 0)
(10.2298 0.310363 0)
(10.2116 0.245627 0)
(10.1797 0.195358 0)
(10.1339 0.157579 0)
(10.0766 0.12954 0)
(10.0115 0.108656 0)
(9.94222 0.092873 0)
(9.87101 0.0806398 0)
(9.79967 0.0709528 0)
(9.7293 0.0630575 0)
(9.66105 0.0564638 0)
(9.59536 0.0505166 0)
(9.53318 0.0456108 0)
(9.4751 0.0386565 0)
(9.42305 0.0379375 0)
(10.0032 0.0599514 0)
(10.0309 0.0482534 0)
(10.0615 0.00995832 0)
(10.0899 -8.43398e-05 0)
(10.1154 0.00805757 0)
(10.138 0.0192807 0)
(10.1552 0.0288302 0)
(10.1664 0.0362685 0)
(10.1724 0.0417714 0)
(10.1742 0.0455552 0)
(10.1726 0.0479332 0)
(10.1681 0.049195 0)
(10.1615 0.0495645 0)
(10.1531 0.0491747 0)
(10.1436 0.0480373 0)
(10.1335 0.0461236 0)
(10.1235 0.0430581 0)
(10.1126 0.0373973 0)
(9.99715 0.00990198 0)
(10.009 0.0260593 0)
(10.0342 0.0382393 0)
(10.0556 0.0532964 0)
(10.0724 0.0647914 0)
(10.088 0.0700916 0)
(10.102 0.0711925 0)
(10.1142 0.0703787 0)
(10.1246 0.0687297 0)
(10.1338 0.0666675 0)
(10.142 0.0643889 0)
(10.1492 0.0620084 0)
(10.1556 0.0595334 0)
(10.1613 0.0569258 0)
(10.1665 0.0540255 0)
(10.1714 0.0506546 0)
(10.176 0.0462567 0)
(10.1797 0.0396622 0)
(9.99907 0.00679392 0)
(10.0082 0.0342593 0)
(10.028 0.0482683 0)
(10.0438 0.0547713 0)
(10.0561 0.0581922 0)
(10.0682 0.0593189 0)
(10.0799 0.0590267 0)
(10.0905 0.0582122 0)
(10.1001 0.0572319 0)
(10.1089 0.0561155 0)
(10.1173 0.0548508 0)
(10.1251 0.0534243 0)
(10.1326 0.0517997 0)
(10.1397 0.0499038 0)
(10.1466 0.0475942 0)
(10.1534 0.0446781 0)
(10.1598 0.0407838 0)
(10.1655 0.0355245 0)
(10.0002 0.00922461 0)
(10.008 0.0333513 0)
(10.0237 0.0439712 0)
(10.0371 0.0482492 0)
(10.0481 0.0516537 0)
(10.0589 0.0539881 0)
(10.0696 0.0549472 0)
(10.0793 0.0550238 0)
(10.0881 0.0546076 0)
(10.0963 0.0538245 0)
(10.1041 0.0527233 0)
(10.1116 0.0513381 0)
(10.1188 0.0496674 0)
(10.1257 0.0476653 0)
(10.1325 0.045225 0)
(10.139 0.0421974 0)
(10.1452 0.0383813 0)
(10.1507 0.0336017 0)
(10.0003 0.00910282 0)
(10.007 0.0286839 0)
(10.0202 0.0387663 0)
(10.0324 0.0438421 0)
(10.0428 0.0478793 0)
(10.0529 0.0506091 0)
(10.0628 0.0517679 0)
(10.0719 0.051901 0)
(10.0802 0.0514697 0)
(10.0881 0.0506432 0)
(10.0955 0.0494851 0)
(10.1026 0.0480321 0)
(10.1095 0.0462881 0)
(10.1161 0.0442115 0)
(10.1225 0.0417204 0)
(10.1286 0.0387056 0)
(10.1343 0.0350592 0)
(10.1394 0.0307092 0)
(10.0004 0.00811762 0)
(10.006 0.0246206 0)
(10.0172 0.0347315 0)
(10.0285 0.0403107 0)
(10.0384 0.0443144 0)
(10.0479 0.0469432 0)
(10.0572 0.0481236 0)
(10.0659 0.0483246 0)
(10.074 0.0479555 0)
(10.0815 0.0471771 0)
(10.0887 0.0460511 0)
(10.0956 0.044612 0)
(10.1022 0.0428675 0)
(10.1085 0.040787 0)
(10.1146 0.0383151 0)
(10.1203 0.0353823 0)
(10.1256 0.0319429 0)
(10.1303 0.0279929 0)
(10.0004 0.00717825 0)
(10.0052 0.021411 0)
(10.0147 0.0310905 0)
(10.0249 0.0366942 0)
(10.0343 0.0405067 0)
(10.0433 0.0430383 0)
(10.0522 0.0442916 0)
(10.0605 0.0446052 0)
(10.0684 0.0443226 0)
(10.0757 0.0436042 0)
(10.0827 0.0425175 0)
(10.0894 0.0410998 0)
(10.0958 0.0393666 0)
(10.1019 0.0373023 0)
(10.1076 0.0348768 0)
(10.113 0.0320558 0)
(10.118 0.0288335 0)
(10.1224 0.0252432 0)
(10.0004 0.00633515 0)
(10.0045 0.0186208 0)
(10.0126 0.0275423 0)
(10.0218 0.0329963 0)
(10.0306 0.0366481 0)
(10.0391 0.0390933 0)
(10.0474 0.0403878 0)
(10.0555 0.0407784 0)
(10.0631 0.0405565 0)
(10.0702 0.0398833 0)
(10.077 0.0388317 0)
(10.0835 0.0374426 0)
(10.0897 0.0357378 0)
(10.0955 0.0337167 0)
(10.1011 0.0313698 0)
(10.1062 0.02869 0)
(10.1108 0.0256955 0)
(10.115 0.0224367 0)
(10.0004 0.00554115 0)
(10.0039 0.0161068 0)
(10.0108 0.0241527 0)
(10.019 0.0293489 0)
(10.0272 0.0328203 0)
(10.0352 0.0351373 0)
(10.0431 0.0364106 0)
(10.0507 0.0368331 0)
(10.058 0.0366479 0)
(10.065 0.0360088 0)
(10.0715 0.0349915 0)
(10.0778 0.0336394 0)
(10.0838 0.0319802 0)
(10.0894 0.0300259 0)
(10.0947 0.0277833 0)
(10.0996 0.0252638 0)
(10.104 0.0224994 0)
(10.108 0.0195466 0)
(10.0003 0.00483245 0)
(10.0034 0.0139923 0)
(10.0094 0.0212043 0)
(10.0168 0.0260694 0)
(10.0244 0.0293306 0)
(10.0319 0.0314934 0)
(10.0394 0.0327051 0)
(10.0467 0.0331251 0)
(10.0537 0.0329558 0)
(10.0604 0.0323391 0)
(10.0668 0.0313511 0)
(10.0728 0.0300378 0)
(10.0786 0.0284316 0)
(10.084 0.0265545 0)
(10.089 0.0244238 0)
(10.0937 0.0220622 0)
(10.0979 0.0195071 0)
(10.1017 0.0168161 0)
(10.0003 0.00416817 0)
(10.003 0.0120512 0)
(10.0082 0.0184177 0)
(10.0149 0.0228703 0)
(10.0219 0.0258823 0)
(10.029 0.0278683 0)
(10.036 0.0289895 0)
(10.043 0.0293824 0)
(10.0497 0.0292138 0)
(10.0561 0.0286116 0)
(10.0623 0.0276513 0)
(10.0681 0.0263802 0)
(10.0736 0.0248345 0)
(10.0788 0.0230429 0)
(10.0836 0.0210313 0)
(10.0881 0.0188288 0)
(10.0922 0.0164744 0)
(10.0958 0.0140222 0)
(10.0003 0.00347637 0)
(10.0026 0.0100272 0)
(10.0071 0.0154282 0)
(10.013 0.0193297 0)
(10.0194 0.0219982 0)
(10.026 0.0237429 0)
(10.0326 0.0247212 0)
(10.0391 0.0250497 0)
(10.0455 0.02486 0)
(10.0516 0.0242629 0)
(10.0575 0.023331 0)
(10.0631 0.0221115 0)
(10.0683 0.0206427 0)
(10.0733 0.0189575 0)
(10.0779 0.0170881 0)
(10.0821 0.0150671 0)
(10.086 0.0129326 0)
(10.0895 0.0107317 0)
(10.0002 0.00275321 0)
(10.0022 0.00791684 0)
(10.0061 0.0122463 0)
(10.0113 0.0154556 0)
(10.0171 0.0176683 0)
(10.0231 0.0190919 0)
(10.0292 0.0198624 0)
(10.0353 0.0200776 0)
(10.0413 0.0198368 0)
(10.0471 0.0192302 0)
(10.0526 0.0183239 0)
(10.0579 0.0171645 0)
(10.0629 0.0157886 0)
(10.0676 0.0142311 0)
(10.0719 0.012525 0)
(10.076 0.0107049 0)
(10.0796 0.00880473 0)
(10.083 0.00686382 0)
(10.0002 0.00199926 0)
(10.0019 0.00572479 0)
(10.0052 0.00888538 0)
(10.0097 0.0112609 0)
(10.0149 0.0128909 0)
(10.0204 0.013898 0)
(10.026 0.0143836 0)
(10.0317 0.0144245 0)
(10.0372 0.0140925 0)
(10.0427 0.0134551 0)
(10.0479 0.0125671 0)
(10.0528 0.0114712 0)
(10.0575 0.0102013 0)
(10.062 0.00878884 0)
(10.0661 0.0072646 0)
(10.0699 0.00565964 0)
(10.0734 0.00400376 0)
(10.0766 0.00232598 0)
(10.0002 0.00121367 0)
(10.0016 0.00344231 0)
(10.0045 0.00533627 0)
(10.0084 0.00673903 0)
(10.0131 0.0076507 0)
(10.018 0.00813203 0)
(10.0232 0.00824525 0)
(10.0284 0.00804176 0)
(10.0336 0.00756913 0)
(10.0387 0.00687136 0)
(10.0436 0.00598851 0)
(10.0482 0.00495363 0)
(10.0527 0.00379532 0)
(10.0568 0.00253806 0)
(10.0607 0.00120692 0)
(10.0644 -0.000174533 0)
(10.0677 -0.00158229 0)
(10.0708 -0.00299732 0)
(10.0002 0.000382268 0)
(10.0014 0.00102331 0)
(10.004 0.00153406 0)
(10.0075 0.00181948 0)
(10.0117 0.00186854 0)
(10.0163 0.00170143 0)
(10.0211 0.00134265 0)
(10.026 0.000815308 0)
(10.0308 0.00014276 0)
(10.0356 -0.000653112 0)
(10.0402 -0.00155175 0)
(10.0446 -0.00253428 0)
(10.0488 -0.00358308 0)
(10.0527 -0.00468227 0)
(10.0564 -0.00581618 0)
(10.0599 -0.00696959 0)
(10.0631 -0.00812723 0)
(10.0661 -0.00927818 0)
(10.0001 -0.000536486 0)
(10.0013 -0.0016484 0)
(10.0037 -0.00268841 0)
(10.0071 -0.00368497 0)
(10.0111 -0.00464398 0)
(10.0155 -0.00557903 0)
(10.0201 -0.00650497 0)
(10.0247 -0.00743058 0)
(10.0294 -0.00835792 0)
(10.034 -0.00928895 0)
(10.0384 -0.0102247 0)
(10.0426 -0.0111653 0)
(10.0467 -0.0121083 0)
(10.0505 -0.0130505 0)
(10.0541 -0.0139875 0)
(10.0574 -0.0149147 0)
(10.0606 -0.015826 0)
(10.0635 -0.0167195 0)
(10.0002 -0.00140399 0)
(10.0014 -0.00417405 0)
(10.0039 -0.00669362 0)
(10.0074 -0.00890497 0)
(10.0116 -0.0108047 0)
(10.0161 -0.0124489 0)
(10.0208 -0.0138947 0)
(10.0255 -0.0151769 0)
(10.0302 -0.0163248 0)
(10.0348 -0.0173659 0)
(10.0392 -0.0183259 0)
(10.0435 -0.0192213 0)
(10.0475 -0.0200648 0)
(10.0513 -0.0208636 0)
(10.0548 -0.0216249 0)
(10.0582 -0.0223522 0)
(10.0613 -0.0230487 0)
(10.0642 -0.0237171 0)
(10.0002 -0.00213748 0)
(10.0015 -0.00634278 0)
(10.0043 -0.0101497 0)
(10.0082 -0.0133529 0)
(10.0127 -0.0159673 0)
(10.0175 -0.018144 0)
(10.0224 -0.0199822 0)
(10.0273 -0.0215219 0)
(10.0322 -0.0228083 0)
(10.0369 -0.0238978 0)
(10.0415 -0.0248407 0)
(10.0458 -0.0256709 0)
(10.0498 -0.026413 0)
(10.0537 -0.0270839 0)
(10.0573 -0.0276984 0)
(10.0606 -0.0282671 0)
(10.0638 -0.0287978 0)
(10.0667 -0.0292979 0)
(10.0002 -0.00281462 0)
(10.0017 -0.00844841 0)
(10.0048 -0.0135722 0)
(10.0093 -0.0176765 0)
(10.0143 -0.0208481 0)
(10.0195 -0.0234204 0)
(10.0247 -0.0255478 0)
(10.03 -0.0272721 0)
(10.0351 -0.028652 0)
(10.04 -0.0297648 0)
(10.0447 -0.0306721 0)
(10.0491 -0.031421 0)
(10.0533 -0.032046 0)
(10.0572 -0.0325771 0)
(10.0609 -0.0330355 0)
(10.0642 -0.0334397 0)
(10.0674 -0.0337992 0)
(10.0703 -0.0341239 0)
(10.0001 -0.00341666 0)
(10.0017 -0.0105304 0)
(10.0054 -0.016981 0)
(10.0107 -0.0218993 0)
(10.0164 -0.0256 0)
(10.022 -0.0285385 0)
(10.0276 -0.0308434 0)
(10.0332 -0.0326012 0)
(10.0386 -0.0339558 0)
(10.0437 -0.0350238 0)
(10.0486 -0.0358696 0)
(10.0532 -0.0365371 0)
(10.0575 -0.037066 0)
(10.0614 -0.0374911 0)
(10.0652 -0.0378391 0)
(10.0686 -0.038129 0)
(10.0718 -0.0383739 0)
(10.0748 -0.0385854 0)
(10.0001 -0.00389932 0)
(10.0016 -0.0129971 0)
(10.006 -0.0204899 0)
(10.0123 -0.0256136 0)
(10.0186 -0.0297339 0)
(10.0247 -0.0332623 0)
(10.0308 -0.0359303 0)
(10.0367 -0.0377671 0)
(10.0424 -0.0390392 0)
(10.0477 -0.039949 0)
(10.0528 -0.0405946 0)
(10.0575 -0.0410387 0)
(10.0619 -0.0413391 0)
(10.066 -0.0415423 0)
(10.0698 -0.0416827 0)
(10.0734 -0.0417814 0)
(10.0767 -0.0418517 0)
(10.0797 -0.0418935 0)
(9.9998 -0.00357113 0)
(10.0011 -0.0166332 0)
(10.0069 -0.025655 0)
(10.014 -0.0298778 0)
(10.0205 -0.0332467 0)
(10.0269 -0.0367524 0)
(10.0337 -0.0397402 0)
(10.0404 -0.0419747 0)
(10.0466 -0.0436128 0)
(10.0523 -0.0448038 0)
(10.0577 -0.0456295 0)
(10.0628 -0.0461639 0)
(10.0674 -0.0464826 0)
(10.0718 -0.0466496 0)
(10.0758 -0.0467122 0)
(10.0795 -0.0467042 0)
(10.0829 -0.0466504 0)
(10.0861 -0.0465642 0)
(9.99829 -1.64167e-05 0)
(9.99795 -0.0176822 0)
(10.0068 -0.0316048 0)
(10.0161 -0.0377299 0)
(10.0231 -0.0404656 0)
(10.03 -0.0420546 0)
(10.0374 -0.0430526 0)
(10.0449 -0.0437943 0)
(10.0519 -0.0444427 0)
(10.0585 -0.0450039 0)
(10.0646 -0.045446 0)
(10.0703 -0.0457805 0)
(10.0756 -0.0460309 0)
(10.0805 -0.0462244 0)
(10.0849 -0.0463744 0)
(10.089 -0.046498 0)
(10.0928 -0.0465989 0)
(10.0962 -0.0466483 0)
(9.99413 0.00276458 0)
(9.98994 -0.00764568 0)
(10.0031 -0.0229331 0)
(10.0184 -0.0397805 0)
(10.03 -0.0532017 0)
(10.04 -0.0610034 0)
(10.0497 -0.0645689 0)
(10.0587 -0.0658493 0)
(10.067 -0.0659734 0)
(10.0747 -0.0653864 0)
(10.0819 -0.0643688 0)
(10.0885 -0.0631107 0)
(10.0945 -0.0617765 0)
(10.1 -0.0604465 0)
(10.1049 -0.0591847 0)
(10.1093 -0.0580211 0)
(10.1134 -0.056982 0)
(10.1171 -0.0560198 0)
(9.9942 -0.0305159 0)
(9.99523 -0.0134899 0)
(10.0085 0.0214598 0)
(10.0271 0.0319383 0)
(10.0468 0.0240417 0)
(10.0665 0.011473 0)
(10.0846 -0.000270997 0)
(10.1002 -0.0105112 0)
(10.1133 -0.0191772 0)
(10.1243 -0.0262777 0)
(10.1334 -0.0319062 0)
(10.1407 -0.0363069 0)
(10.1463 -0.0397103 0)
(10.1504 -0.0423327 0)
(10.1533 -0.0443369 0)
(10.1549 -0.0458933 0)
(10.1557 -0.0471312 0)
(10.1555 -0.0481982 0)
(10.0368 -0.209418 0)
(10.1083 -0.365921 0)
(10.1423 -0.352779 0)
(10.1567 -0.298082 0)
(10.1695 -0.247681 0)
(10.1817 -0.206862 0)
(10.1881 -0.174443 0)
(10.1863 -0.149097 0)
(10.1768 -0.129396 0)
(10.1612 -0.113888 0)
(10.1405 -0.101507 0)
(10.1158 -0.0914978 0)
(10.0881 -0.0833249 0)
(10.0582 -0.0765812 0)
(10.027 -0.0709861 0)
(9.99485 -0.0663603 0)
(9.96237 -0.0625517 0)
(9.93019 -0.0598665 0)
(9.92866 0.765528 0)
(9.83918 0.742056 0)
(9.70519 0.524414 0)
(9.52607 0.348754 0)
(9.33141 0.227653 0)
(9.13999 0.14694 0)
(8.95796 0.0935271 0)
(8.78781 0.0579236 0)
(8.63094 0.0340515 0)
(8.48798 0.0180285 0)
(8.35831 0.00735733 0)
(8.24111 0.000371655 0)
(8.13521 -0.00418493 0)
(8.03956 -0.00704572 0)
(7.95303 -0.00873024 0)
(7.87465 -0.00967449 0)
(7.80308 -0.0101612 0)
(7.73792 -0.0107787 0)
(0.00615708 -0.0102083 -7.90078e-19)
(0.0255085 -0.0293478 5.30151e-19)
(0.0480441 -0.0370652 0)
(0.0710496 -0.0362212 0)
(0.0906024 -0.0300326 0)
(0.104696 -0.02132 -2.69336e-19)
(0.112847 -0.011731 0)
(0.115287 -0.00211337 0)
(0.111435 0.00686162 0)
(0.102165 0.0145775 0)
(0.0883741 0.0207968 2.598e-19)
(0.0709555 0.025475 0)
(0.0506874 0.0287706 0)
(0.0281427 0.0310912 0)
(0.00370181 0.0329253 0)
(-0.0224471 0.034336 3.16338e-19)
(-0.0504489 0.0354457 0)
(-0.0805966 0.0366452 0)
(-0.113084 0.0381324 0)
(-0.148087 0.0399408 0)
(-0.185797 0.0420043 0)
(-0.226332 0.0442325 0)
(-0.26969 0.046522 0)
(-0.315844 0.0488177 1.38424e-19)
(-0.364705 0.0510383 -1.26847e-19)
(-0.416058 0.053094 1.16702e-19)
(-0.469627 0.0549006 1.0779e-19)
(-0.525074 0.0563958 0)
(-0.582024 0.0575223 0)
(-0.640071 0.0582547 -8.70981e-20)
(-0.698797 0.0585747 -8.17994e-20)
(-0.757784 0.0584964 0)
(-0.816651 0.0580398 0)
(-0.875056 0.0572469 -6.93935e-20)
(-0.932707 0.0561595 0)
(-0.989356 0.0548336 0)
(-1.04481 0.0533168 6.07578e-20)
(-1.09893 0.0516663 0)
(-1.15161 0.049925 5.64221e-20)
(-1.20281 0.0481409 1.09143e-19)
(-1.25249 0.0463437 0)
(-1.30066 0.0445679 0)
(-1.34737 0.0428298 0)
(-1.39265 0.0411513 0)
(-1.43656 0.0395373 0)
(-1.47917 0.0380008 9.28101e-20)
(-1.52055 0.0365393 9.07618e-20)
(-1.56077 0.0351604 8.88449e-20)
(-1.5999 0.033857 0)
(-1.63802 0.0326318 -8.53338e-20)
(-1.67519 0.0314732 0)
(-1.71147 0.0303831 8.21675e-20)
(-1.74693 0.0293506 8.0687e-20)
(-1.78162 0.0283769 0)
(-1.81561 0.0274505 0)
(-1.84892 0.0265745 0)
(-1.88161 0.0257391 7.52666e-20)
(-1.91371 0.0249479 0)
(-1.94527 0.024191 0)
(-1.97631 0.023474 0)
(-2.00687 0.0227894 0)
(-2.03699 0.0221432 0)
(-2.06668 0.0215285 0)
(-2.09598 0.0209522 0)
(-2.12492 0.0204083 0)
(-2.15353 0.0199044 -6.46502e-20)
(-2.18182 0.0194349 0)
(-2.20985 0.0190062 0)
(-2.23762 0.0186135 6.13116e-20)
(-2.26517 0.0182637 6.02085e-20)
(-2.29255 0.017953 0)
(-2.31977 0.0176869 -5.8014e-20)
(-2.34688 0.0174612 5.6922e-20)
(-2.37392 0.0172804 0)
(-2.40092 0.0171422 -5.47471e-20)
(-2.42793 0.0170512 0)
(-2.45498 0.0170085 0)
(-2.4821 0.0170182 5.15131e-20)
(-2.50932 0.0170769 0)
(-2.53668 0.0171835 -4.93843e-20)
(-2.56419 0.017335 0)
(-2.59186 0.0175242 4.72879e-20)
(-2.61968 0.0177322 4.62558e-20)
(-2.64767 0.0181242 4.52378e-20)
(-2.67588 0.0188386 8.8483e-20)
(-2.70438 0.0192242 -8.65545e-20)
(-2.73307 0.0192741 0)
(-2.76179 0.0196808 0)
(-2.79059 0.020199 0)
(-2.81947 0.0205488 -7.92258e-20)
(-2.8484 0.0208411 -7.75233e-20)
(-2.87728 0.0209219 7.58746e-20)
(-2.90604 0.0210252 0)
(-2.93445 0.0204528 -7.28203e-20)
(-2.96236 0.0202321 -7.13299e-20)
(-2.98974 0.0195229 -6.99782e-20)
(-3.01623 0.0189626 0)
(-3.04189 0.0182134 0)
(-3.06625 0.0175078 0)
(-3.08947 0.0171791 -6.50305e-20)
(-3.11105 0.0158735 0)
(-3.13076 0.0148592 0)
(-3.14817 0.0131941 6.21255e-20)
(-3.16271 0.0107303 0)
(-3.17373 0.00885972 0)
(-3.18135 0.00849981 5.96301e-20)
(-3.18557 0.00750597 0)
(-3.18652 0.00616987 0)
(-3.18393 0.00424735 -5.74507e-20)
(-3.17753 0.00254413 -5.66315e-20)
(-3.16744 0.00148475 0)
(-3.15331 -0.000419666 5.49337e-20)
(-3.13489 -0.00240403 0)
(-3.11189 -0.00504248 -5.2983e-20)
(-3.0839 -0.00757299 0)
(-3.05125 -0.00915395 -5.04295e-20)
(-3.01375 -0.0116324 -4.88787e-20)
(-2.97098 -0.0147075 0)
(-2.9228 -0.0173982 0)
(-2.86941 -0.0200864 0)
(-2.81074 -0.0227998 0)
(-2.74671 -0.0259522 0)
(-2.67723 -0.029217 0)
(-2.60235 -0.0325663 0)
(-2.52205 -0.0359996 -2.46758e-20)
(-2.43646 -0.0395005 1.93511e-20)
(-2.34571 -0.0430354 0)
(-2.24999 -0.0465906 0)
(-2.14952 -0.0501199 0)
(-2.04457 -0.0536014 0)
(-1.93542 -0.0569965 -3.94963e-20)
(-1.8224 -0.0602831 0)
(-1.70587 -0.0634266 8.57253e-20)
(-1.58621 -0.0664108 -1.1292e-19)
(-1.46382 -0.069206 0)
(-1.33913 -0.0718071 0)
(-1.21255 -0.0742222 0)
(-1.08454 -0.0764478 2.56566e-19)
(-0.955505 -0.0784992 3.03567e-19)
(-0.825858 -0.0803932 0)
(-0.69598 -0.0821525 4.1595e-19)
(-0.566237 -0.083734 4.83682e-19)
(-0.437128 -0.0851058 -5.61362e-19)
(-0.308562 -0.0863555 0)
(-0.181917 -0.0876692 0)
(-0.0539697 -0.0873262 -8.05561e-19)
(0.0769038 -0.0842264 0)
(0.205039 -0.0801145 0)
(0.329991 -0.0758752 0)
(0.451168 -0.0717167 0)
(0.568219 -0.067701 6.68009e-19)
(0.680973 -0.0638447 6.50729e-19)
(0.789342 -0.0601413 0)
(0.893315 -0.0566161 6.22017e-19)
(0.992928 -0.0532866 0)
(1.08823 -0.0501099 0)
(1.1793 -0.0470742 5.89011e-19)
(1.26629 -0.0442142 0)
(1.34931 -0.0415314 5.71228e-19)
(1.42847 -0.038998 0)
(1.50391 -0.0366045 0)
(1.57577 -0.0343426 5.49394e-19)
(1.64418 -0.0322124 0)
(1.70931 -0.03021 5.37189e-19)
(1.77128 -0.0283248 0)
(1.83021 -0.0265453 0)
(1.88623 -0.0248664 0)
(1.93945 -0.0232787 -5.17216e-19)
(1.98995 -0.021772 0)
(2.03782 -0.0203339 5.09111e-19)
(2.08307 -0.0189493 0)
(2.1257 -0.0175916 0)
(2.1656 -0.0162279 0)
(2.20251 -0.0147974 0)
(2.23599 -0.0132057 0)
(2.26474 -0.0112648 0)
(2.2879 -0.00832255 0)
(2.29601 -0.00286977 -9.96486e-19)
(2.29052 0.0101829 0)
(2.1821 0.0290321 0)
(0.0154632 -0.0576275 1.44394e-18)
(0.0362506 -0.0732513 -6.50625e-19)
(0.0468326 -0.0663675 0)
(0.0536447 -0.0543335 1.96106e-19)
(0.0562408 -0.0396273 0)
(0.0549142 -0.023609 7.69133e-20)
(0.0501604 -0.00727473 -1.46319e-19)
(0.0422313 0.00871737 -1.42083e-19)
(0.0313405 0.0237691 0)
(0.01719 0.0373376 -1.40001e-19)
(-0.000348873 0.0491123 -7.04315e-20)
(-0.0213376 0.0590597 0)
(-0.0457906 0.0673929 0)
(-0.0737084 0.0744773 0)
(-0.105096 0.0807587 0)
(-0.139806 0.0866379 -6.15756e-20)
(-0.177512 0.0924342 0)
(-0.218054 0.0983716 1.13664e-19)
(-0.261377 0.104543 0)
(-0.307348 0.110917 0)
(-0.355795 0.117358 -9.99959e-20)
(-0.4065 0.123679 0)
(-0.459194 0.129676 9.13528e-20)
(-0.51356 0.135159 -4.38105e-20)
(-0.569229 0.139943 4.18665e-20)
(-0.625812 0.143877 -4.00303e-20)
(-0.682915 0.146848 -3.83072e-20)
(-0.740151 0.148806 0)
(-0.797166 0.149723 0)
(-0.853634 0.149602 3.38141e-20)
(-0.909276 0.148499 -3.22626e-20)
(-0.963868 0.146519 0)
(-1.01724 0.143785 0)
(-1.06925 0.140437 2.92704e-20)
(-1.11984 0.136611 0)
(-1.16895 0.132441 0)
(-1.21658 0.128042 -2.67378e-20)
(-1.26272 0.123525 0)
(-1.30742 0.118979 2.51486e-20)
(-1.35071 0.114481 -4.95228e-20)
(-1.39266 0.110087 0)
(-1.43333 0.105843 0)
(-1.47278 0.101777 -9.23667e-20)
(-1.5111 0.0979107 -9.05608e-20)
(-1.54834 0.0942509 -8.88693e-20)
(-1.58459 0.0908048 4.34554e-20)
(-1.6199 0.087566 -4.30711e-20)
(-1.65434 0.0845327 -1.26723e-19)
(-1.68796 0.0816918 8.30165e-20)
(-1.72083 0.079037 4.10283e-20)
(-1.75299 0.0765511 0)
(-1.7845 0.0742262 -3.98034e-20)
(-1.81539 0.0720451 3.89232e-20)
(-1.84571 0.0700009 0)
(-1.8755 0.0680772 0)
(-1.90479 0.0662692 0)
(-1.93363 0.0645629 -3.70425e-20)
(-1.96202 0.0629557 0)
(-1.99002 0.061435 7.17903e-20)
(-2.01763 0.0600001 0)
(-2.04489 0.0586407 6.9799e-20)
(-2.07182 0.0573583 0)
(-2.09845 0.0561443 -6.78352e-20)
(-2.12479 0.0550016 0)
(-2.15088 0.0539229 6.58827e-20)
(-2.17673 0.0529124 -3.23683e-20)
(-2.20237 0.0519645 0)
(-2.22781 0.0510841 -6.29486e-20)
(-2.2531 0.0502673 -3.10589e-20)
(-2.27825 0.0495187 -3.05659e-20)
(-2.30328 0.0488348 0)
(-2.32823 0.048219 -2.94413e-20)
(-2.35311 0.0476668 -2.90866e-20)
(-2.37795 0.0471787 0)
(-2.40278 0.0467485 2.81008e-20)
(-2.42761 0.0463745 -5.50806e-20)
(-2.45246 0.0460522 0)
(-2.47735 0.0457784 -2.66262e-20)
(-2.50228 0.045544 0)
(-2.52725 0.0453397 7.68001e-20)
(-2.55228 0.0451571 0)
(-2.57734 0.0449848 -7.38896e-20)
(-2.60246 0.0448116 -2.4208e-20)
(-2.62761 0.04463 2.35597e-20)
(-2.65275 0.0444548 4.6185e-20)
(-2.67786 0.0442895 -4.52769e-20)
(-2.7029 0.0440877 0)
(-2.72779 0.0438185 0)
(-2.75244 0.0435047 0)
(-2.77675 0.0431091 1.2636e-19)
(-2.80068 0.0425788 4.1515e-20)
(-2.82415 0.0418851 -4.0758e-20)
(-2.847 0.0410069 0)
(-2.86919 0.0399594 -3.87348e-20)
(-2.89051 0.0386943 3.8685e-20)
(-2.91082 0.0372037 3.80758e-20)
(-2.92997 0.0354461 0)
(-2.94778 0.0334179 0)
(-2.9641 0.0310895 0)
(-2.97866 0.0284602 3.58763e-20)
(-2.99137 0.0255188 0)
(-3.00204 0.0222263 -6.93993e-20)
(-3.01059 0.0185981 -1.03112e-19)
(-3.01707 0.0146443 6.77611e-20)
(-3.02155 0.0104143 0)
(-3.02379 0.00603473 3.2815e-20)
(-3.02353 0.00156003 0)
(-3.02011 -0.00295267 6.48475e-20)
(-3.01325 -0.00751876 -3.18547e-20)
(-3.00285 -0.0123233 -3.14993e-20)
(-2.98843 -0.0173577 0)
(-2.96981 -0.0225914 -9.29818e-20)
(-2.94687 -0.0280404 6.09247e-20)
(-2.91936 -0.0336063 3.01593e-20)
(-2.88724 -0.0392327 0)
(-2.85012 -0.0449759 2.88857e-20)
(-2.80784 -0.0508499 8.40928e-20)
(-2.76046 -0.0567995 0)
(-2.70775 -0.0626876 5.23756e-20)
(-2.64964 -0.068605 5.01569e-20)
(-2.58601 -0.0745081 4.76018e-20)
(-2.51685 -0.0803861 0)
(-2.44219 -0.086177 0)
(-2.36199 -0.0918592 0)
(-2.27626 -0.0973325 -1.70495e-20)
(-2.18511 -0.102599 -1.36901e-20)
(-2.08869 -0.107609 0)
(-1.98717 -0.112349 -1.70645e-20)
(-1.8808 -0.116775 -1.04597e-20)
(-1.76985 -0.120867 0)
(-1.65462 -0.12458 6.72812e-21)
(-1.53547 -0.127897 2.6692e-20)
(-1.41277 -0.130786 -2.5046e-20)
(-1.28695 -0.133237 -3.01417e-20)
(-1.15843 -0.135236 0)
(-1.02768 -0.136789 0)
(-0.89515 -0.137896 0)
(-0.761317 -0.138585 -8.30535e-20)
(-0.626644 -0.138882 9.00924e-20)
(-0.491572 -0.138825 2.15192e-19)
(-0.356492 -0.138449 -1.25994e-19)
(-0.221835 -0.137821 1.34312e-19)
(-0.087382 -0.137055 1.55208e-19)
(0.0468338 -0.136333 0)
(0.179483 -0.13573 0)
(0.308768 -0.133996 -1.72618e-19)
(0.433869 -0.130325 0)
(0.555171 -0.125544 0)
(0.673186 -0.120305 3.92184e-19)
(0.787806 -0.114894 0)
(0.898851 -0.109448 2.05115e-19)
(1.00618 -0.104055 -2.1531e-19)
(1.10971 -0.0987606 0)
(1.2094 -0.0936055 2.19939e-19)
(1.30525 -0.0886209 0)
(1.39726 -0.0838194 0)
(1.4855 -0.0792046 -2.35245e-19)
(1.57004 -0.0747993 4.72976e-19)
(1.65095 -0.0706036 -2.40888e-19)
(1.7283 -0.0666015 0)
(1.80223 -0.062794 0)
(1.87285 -0.0591831 2.45089e-19)
(1.94029 -0.0557708 0)
(2.00466 -0.0525461 2.49007e-19)
(2.06608 -0.0494896 0)
(2.12466 -0.0465905 0)
(2.1805 -0.043842 0)
(2.23371 -0.0412283 2.56881e-19)
(2.28437 -0.0387297 0)
(2.33254 -0.0363246 -2.59062e-19)
(2.37824 -0.0339779 0)
(2.42147 -0.0316359 0)
(2.46211 -0.0292165 5.2283e-19)
(2.49993 -0.0265986 -5.25001e-19)
(2.53455 -0.0235348 0)
(2.56503 -0.0196359 0)
(2.59052 -0.0136495 0)
(2.60744 -0.00332108 1.62323e-18)
(2.62428 0.017832 0)
(2.61326 0.0565437 -1.12238e-18)
(0.0089978 -0.102599 -7.92523e-22)
(0.0200391 -0.0972329 6.42248e-19)
(0.0206418 -0.074554 0)
(0.0183912 -0.0522835 -2.67236e-19)
(0.0126542 -0.0303194 0)
(0.00398102 -0.00858296 0)
(-0.00716901 0.0127284 8.16866e-23)
(-0.0206158 0.0333501 8.45485e-20)
(-0.0363762 0.0530387 8.04258e-20)
(-0.0545679 0.0715377 7.76528e-20)
(-0.0753543 0.0886176 0)
(-0.0989194 0.104167 0)
(-0.125429 0.11824 -7.17991e-20)
(-0.154998 0.131041 -1.40227e-19)
(-0.187654 0.142872 1.36755e-19)
(-0.22331 0.154062 0)
(-0.261773 0.164867 1.29327e-19)
(-0.302794 0.17541 -6.28424e-20)
(-0.346097 0.185707 0)
(-0.391378 0.195659 1.1723e-19)
(-0.438321 0.205084 5.67008e-20)
(-0.486595 0.213752 -1.09062e-19)
(-0.53587 0.221428 -5.26734e-20)
(-0.585815 0.227899 0)
(-0.636115 0.232993 9.75124e-20)
(-0.686477 0.236594 9.39599e-20)
(-0.736641 0.238645 0)
(-0.786375 0.239145 8.73515e-20)
(-0.835466 0.238155 0)
(-0.883756 0.235793 8.13722e-20)
(-0.931143 0.232211 3.94459e-20)
(-0.977552 0.227588 0)
(-1.02293 0.222118 0)
(-1.06725 0.215995 0)
(-1.1105 0.209402 0)
(-1.15267 0.202508 0)
(-1.19378 0.195459 0)
(-1.23383 0.18838 6.44321e-20)
(-1.27286 0.181374 -9.4521e-20)
(-1.31089 0.174526 0)
(-1.34794 0.167898 0)
(-1.38407 0.161535 0)
(-1.41929 0.155468 2.06023e-22)
(-1.45366 0.149712 5.70651e-20)
(-1.4872 0.144275 1.11925e-19)
(-1.51996 0.139155 -1.10034e-19)
(-1.55197 0.134345 -5.40258e-20)
(-1.58328 0.129832 5.33622e-20)
(-1.61391 0.125602 -1.81987e-22)
(-1.64391 0.121639 5.15869e-20)
(-1.67332 0.117924 0)
(-1.70216 0.11444 5.01176e-20)
(-1.73046 0.111169 -1.62953e-22)
(-1.75827 0.108095 0)
(-1.7856 0.105202 0)
(-1.81248 0.102477 -4.74292e-20)
(-1.83895 0.0999057 0)
(-1.86502 0.0974781 0)
(-1.89071 0.0951833 4.54169e-20)
(-1.91605 0.0930137 8.98765e-20)
(-1.94106 0.0909612 -4.44548e-20)
(-1.96576 0.0890213 0)
(-1.99017 0.0871881 4.32424e-20)
(-2.0143 0.0854591 0)
(-2.03818 0.0838306 4.18253e-20)
(-2.06182 0.0823018 4.14332e-20)
(-2.08525 0.0808707 -8.14619e-20)
(-2.10849 0.0795376 -4.00335e-20)
(-2.13155 0.0783017 0)
(-2.15445 0.0771629 7.7842e-20)
(-2.17722 0.0761199 0)
(-2.19987 0.0751714 1.13208e-19)
(-2.22243 0.074315 7.41926e-20)
(-2.24491 0.0735464 7.29705e-20)
(-2.26734 0.0728604 -7.17463e-20)
(-2.28973 0.0722504 1.05875e-19)
(-2.3121 0.0717098 0)
(-2.33446 0.0712278 0)
(-2.35681 0.070792 -6.68502e-20)
(-2.37917 0.0703866 -9.85539e-20)
(-2.40153 0.0699982 0)
(-2.4239 0.0696115 3.17227e-20)
(-2.44627 0.0692173 0)
(-2.46862 0.0688147 -9.14177e-20)
(-2.49091 0.0684052 -2.50111e-22)
(-2.51312 0.0679232 2.62964e-22)
(-2.53523 0.0673114 5.74678e-20)
(-2.55718 0.0665919 0)
(-2.57889 0.0657598 -5.53151e-20)
(-2.60028 0.0647571 -3.26289e-22)
(-2.62128 0.0635401 0)
(-2.64186 0.0620691 0)
(-2.6619 0.0603259 0)
(-2.68131 0.0582812 5.09461e-20)
(-2.69997 0.0559266 0)
(-2.71773 0.0532298 0)
(-2.7345 0.050178 0)
(-2.75008 0.0467583 0)
(-2.76437 0.0429624 0)
(-2.77714 0.0387947 4.62737e-20)
(-2.7883 0.0341852 0)
(-2.79769 0.0291523 4.55182e-20)
(-2.80518 0.0236862 4.49959e-20)
(-2.81064 0.0177989 -4.44963e-20)
(-2.81388 0.0115995 0)
(-2.81453 0.00515994 -4.34967e-20)
(-2.81228 -0.00166255 0)
(-2.80681 -0.00883067 -4.25744e-20)
(-2.798 -0.0163138 4.20945e-20)
(-2.78559 -0.0241479 1.24269e-19)
(-2.76929 -0.0322941 0)
(-2.74888 -0.0407746 1.20919e-19)
(-2.7242 -0.0495618 3.94861e-20)
(-2.69498 -0.0586067 0)
(-2.66117 -0.0677983 7.63612e-20)
(-2.62241 -0.0770993 7.46034e-20)
(-2.57865 -0.0865486 -1.08762e-19)
(-2.5297 -0.0961398 0)
(-2.47549 -0.105697 -3.36844e-20)
(-2.41584 -0.11525 -3.21525e-20)
(-2.35073 -0.124738 -9.17833e-20)
(-2.28011 -0.134132 0)
(-2.204 -0.143342 0)
(-2.12238 -0.152315 0)
(-2.03528 -0.160951 -2.21244e-20)
(-1.9428 -0.169194 0)
(-1.8451 -0.176984 0)
(-1.74238 -0.184265 1.05691e-20)
(-1.63488 -0.190977 6.44285e-21)
(-1.52288 -0.197071 0)
(-1.40672 -0.202489 0)
(-1.28677 -0.20719 -1.61432e-20)
(-1.16341 -0.211135 0)
(-1.0371 -0.214298 3.90093e-20)
(-0.908277 -0.216663 4.81135e-20)
(-0.777426 -0.218233 0)
(-0.645022 -0.21902 0)
(-0.511546 -0.219061 -8.84892e-20)
(-0.377464 -0.218398 -4.01875e-21)
(-0.243225 -0.217099 -4.17511e-21)
(-0.109122 -0.215275 0)
(0.024519 -0.213028 -2.947e-19)
(0.156956 -0.210237 0)
(0.28743 -0.206743 0)
(0.415357 -0.202594 0)
(0.540119 -0.197858 1.91832e-19)
(0.661353 -0.192343 0)
(0.779119 -0.186021 -4.14706e-19)
(0.893497 -0.179168 -2.2012e-19)
(1.0044 -0.172009 0)
(1.11172 -0.164698 -2.37124e-19)
(1.21537 -0.157348 0)
(1.31528 -0.150037 0)
(1.41143 -0.142832 -7.73099e-19)
(1.50384 -0.135784 5.27133e-19)
(1.59253 -0.128925 0)
(1.67756 -0.122274 5.51847e-19)
(1.75899 -0.115861 -2.83616e-19)
(1.83691 -0.109709 0)
(1.91142 -0.103819 0)
(1.98266 -0.0981902 0)
(2.05073 -0.0928224 -9.02114e-19)
(2.11576 -0.0877195 0)
(2.17784 -0.0828713 -3.09171e-19)
(2.2371 -0.07826 0)
(2.29367 -0.0738717 0)
(2.34763 -0.0696949 0)
(2.39909 -0.0657077 0)
(2.44812 -0.0618841 0)
(2.4948 -0.0581905 0)
(2.53915 -0.054573 -6.55228e-19)
(2.58115 -0.0509497 0)
(2.62073 -0.0471995 -3.32984e-19)
(2.65768 -0.043134 1.00399e-18)
(2.69171 -0.0384172 0)
(2.72213 -0.0324751 0)
(2.74844 -0.0240245 -6.85609e-19)
(2.7682 -0.0109582 -6.95412e-19)
(2.78639 0.0123104 7.01312e-19)
(2.79196 0.0554207 7.20836e-19)
(-0.000563253 -0.119436 -1.98425e-18)
(-0.000112273 -0.0952725 -7.9754e-19)
(-0.00706184 -0.0647174 -2.9637e-19)
(-0.0158847 -0.0364885 -1.05627e-19)
(-0.0270097 -0.00957859 0)
(-0.040103 0.0165214 1.49072e-19)
(-0.0549971 0.0419312 -6.72013e-20)
(-0.0716619 0.0666056 0)
(-0.0901656 0.0904171 -5.92154e-20)
(-0.110626 0.113198 0)
(-0.133184 0.134787 1.09966e-19)
(-0.157994 0.155076 0)
(-0.185188 0.174047 5.22383e-20)
(-0.214848 0.191768 1.02e-19)
(-0.246974 0.208365 -9.95175e-20)
(-0.281473 0.223981 0)
(-0.318165 0.238717 -9.42875e-20)
(-0.356803 0.252604 0)
(-0.397098 0.265591 0)
(-0.438734 0.277555 -8.57995e-20)
(-0.481394 0.28832 0)
(-0.524773 0.297692 6.98129e-23)
(-0.568583 0.305484 0)
(-0.612566 0.311544 0)
(-0.656495 0.315772 -6.5234e-23)
(-0.70018 0.318128 -6.94387e-20)
(-0.743464 0.31863 -6.69781e-20)
(-0.786224 0.317353 -6.47777e-20)
(-0.82838 0.314426 0)
(-0.869874 0.310033 -1.21249e-19)
(-0.910665 0.304383 0)
(-0.950725 0.297688 -5.69848e-20)
(-0.99004 0.290162 0)
(-1.0286 0.28201 0)
(-1.06639 0.273423 5.24295e-20)
(-1.10342 0.264573 0)
(-1.13967 0.25561 -4.98689e-20)
(-1.17516 0.246664 -8.40572e-23)
(-1.20989 0.237841 9.53621e-20)
(-1.24386 0.229227 -9.32673e-20)
(-1.27709 0.220885 0)
(-1.30959 0.212865 0)
(-1.34137 0.205197 -4.39003e-20)
(-1.37246 0.197899 0)
(-1.40287 0.190981 -4.25475e-20)
(-1.43262 0.18444 4.18481e-20)
(-1.46174 0.178271 4.11832e-20)
(-1.49025 0.17246 0)
(-1.51817 0.166992 -3.99422e-20)
(-1.54553 0.161849 -3.93595e-20)
(-1.57236 0.157011 7.74541e-20)
(-1.59868 0.152459 -3.82555e-20)
(-1.62451 0.148173 -3.77291e-20)
(-1.64988 0.144133 0)
(-1.67481 0.140322 0)
(-1.69931 0.136722 3.62268e-20)