/*--------------------------------*- C++ -*----------------------------------*\
| =========                 |                                                 |
| \\      /  F ield         | OpenFOAM: The Open Source CFD Toolbox           |
|  \\    /   O peration     | Version:  2406                                  |
|   \\  /    A nd           | Website:  www.openfoam.com                      |
|    \\/     M anipulation  |                                                 |
\*---------------------------------------------------------------------------*/
FoamFile
{
    version     2.0;
    format      ascii;
    arch        "LSB;label=32;scalar=64";
    class       volScalarField;
    location    "200";
    object      epsilon;
}
// * * * * * * * * * * * * * * * * * * * * * * * * * * * * * * * * * * * * * //

dimensions      [0 2 -3 0 0 0 0];

internalField   nonuniform List<scalar> 
12225
(
1085.71
2467.78
3645.44
4414.75
4812.15
4980.51
4975.34
4926.51
4840.74
4729.17
4620.76
4517.27
4425.6
4339.63
4269.13
4198.65
4151.01
4085.86
81.2301
262.52
438.553
584.501
691.163
762.813
805.022
829.618
846.932
856.792
866.685
873.6
883.056
890.852
900.531
910.304
917.411
934.263
20.5775
51.1735
83.4742
112.529
136.934
156.181
170.173
179.872
186.393
190.769
193.501
195.602
196.873
198.353
199.392
200.692
202.742
205.991
14.7579
21.8683
30.0216
38.4983
46.2197
53.0341
58.626
63.2592
66.758
69.6433
71.6137
73.3299
74.3189
75.3358
75.7349
76.4085
76.6246
77.3442
14.361
16.3337
18.4571
21.4861
24.4397
27.2608
29.7371
31.9823
33.8191
35.4787
36.745
37.9267
38.7443
39.5742
40.0542
40.6536
40.8433
41.4585
14.6446
14.9541
15.4277
16.4559
17.6093
18.8286
19.9699
21.0767
22.0337
22.9481
23.6895
24.4155
24.9561
25.5271
25.8916
26.3519
26.5477
27.0009
14.7184
14.6387
14.6738
14.8757
15.2176
15.6833
16.1628
16.6724
17.1383
17.6108
18.0104
18.4207
18.7384
19.0878
19.3209
19.6234
19.7656
20.0792
14.7545
14.5907
14.4691
14.4209
14.4418
14.5153
14.6476
14.8246
15.0023
15.2023
15.3793
15.576
15.7326
15.9149
16.0398
16.2081
16.29
16.476
14.7641
14.5919
14.4345
14.3029
14.2031
14.1371
14.0973
14.0987
14.1107
14.1415
14.1783
14.2346
14.2793
14.3427
14.3852
14.4499
14.4814
14.5625
14.7656
14.5942
14.4321
14.2828
14.1466
14.0296
13.9256
13.8437
13.7744
13.7224
13.6772
13.6482
13.6204
13.6063
13.5892
13.5837
13.5723
13.5819
14.7657
14.5945
14.4323
14.2806
14.137
14.0051
13.8816
13.7705
13.6679
13.5777
13.4939
13.4219
13.3537
13.2972
13.2407
13.1973
13.1473
13.1179
14.7657
14.5944
14.4323
14.2801
14.1357
14.0007
13.8728
13.754
13.6417
13.5386
13.441
13.3523
13.2677
13.1922
13.1185
13.055
12.9896
12.9369
14.7657
14.5941
14.4321
14.2797
14.1353
13.9995
13.8707
13.7497
13.6347
13.5271
13.4248
13.3294
13.2384
13.1542
13.0732
12.9991
12.9267
12.8616
14.7657
14.594
14.4319
14.2792
14.1349
13.9987
13.8698
13.7481
13.6327
13.5237
13.4201
13.3224
13.2294
13.1418
13.0582
12.9796
12.9043
12.8337
14.7657
14.5938
14.4317
14.2789
14.1345
13.9981
13.8691
13.7471
13.6316
13.5222
13.4183
13.32
13.2265
13.1379
13.0536
12.9737
12.8975
12.8253
14.7657
14.5938
14.4316
14.2786
14.1341
13.9976
13.8685
13.7463
13.6307
13.5211
13.4171
13.3185
13.2249
13.1361
13.0516
12.9713
12.8949
12.8222
14.7657
14.5937
14.4315
14.2784
14.1338
13.9972
13.868
13.7457
13.6299
13.5202
13.4162
13.3175
13.2237
13.1347
13.0501
12.9697
12.8931
12.8203
14.7657
14.5937
14.4314
14.2783
14.1336
13.9969
13.8677
13.7453
13.6294
13.5196
13.4155
13.3167
13.2228
13.1337
13.049
12.9685
12.8919
12.819
14.7657
14.5937
14.4314
14.2782
14.1336
13.9969
13.8675
13.7452
13.6292
13.5194
13.4152
13.3163
13.2224
13.1333
13.0485
12.968
12.8913
12.8184
14.7657
14.5937
14.4315
14.2783
14.1337
13.997
13.8677
13.7453
13.6294
13.5196
13.4154
13.3166
13.2227
13.1336
13.0489
12.9683
12.8917
12.8188
14.7657
14.5937
14.4316
14.2785
14.1339
13.9973
13.8681
13.7457
13.63
13.5202
13.4163
13.3176
13.2241
13.1352
13.051
12.9708
12.8948
12.8224
14.7657
14.5938
14.4317
14.2786
14.1343
13.9978
13.869
13.7473
13.6325
13.524
13.4219
13.3252
13.2344
13.1483
13.0676
12.9907
12.9192
12.8504
14.7657
14.5937
14.4319
14.2789
14.1361
14.0021
13.8782
13.7629
13.6573
13.5595
13.4707
13.3883
13.3141
13.2446
13.1828
13.1237
13.0729
13.0213
14.7644
14.5922
14.4335
14.2871
14.1629
14.0551
13.9689
13.8978
13.8459
13.8048
13.7783
13.758
13.7482
13.7415
13.7415
13.7454
13.7515
13.7512
14.7478
14.5944
14.4764
14.4102
14.4234
14.4613
14.5554
14.6706
14.817
14.9613
15.1238
15.2712
15.432
15.5684
15.7197
15.8374
15.9783
16.0722
14.6504
14.7821
14.9369
15.3416
15.9227
16.5509
17.2339
17.8781
18.5378
19.1218
19.7129
20.2098
20.7203
21.1251
21.5592
21.8761
22.2458
22.4813
14.572
16.1273
17.9726
20.4197
22.9236
25.2655
27.5469
29.5528
31.4909
33.1029
34.686
35.9145
37.1764
38.0667
39.062
39.6739
40.4626
40.8542
16.5442
25.8795
36.721
46.5547
55.8661
64.2737
72.102
78.742
84.8031
89.5919
94.0148
97.177
100.316
102.193
104.455
105.419
107.138
107.495
45.7966
105.211
164.44
217.234
267.845
313.451
353.662
386.108
413.224
433.658
450.597
462.705
472.894
479.776
486.817
490.308
496.155
497.492
632.343
1081.16
1534.74
1880.99
2183.47
2431.76
2631.52
2773.01
2876.13
2932.17
2969.03
2970.11
2963.09
2946.15
2918.22
2884.95
2849.13
2811.79
0.440238
0.432195
0.723651
1.01426
1.27259
1.48942
1.67879
1.85839
2.02723
2.19255
2.36281
2.54737
2.75956
3.02258
3.34889
3.72819
4.15226
4.62168
5.1405
5.71554
6.3531
7.06055
7.84337
8.70828
9.66002
10.7059
11.8525
13.0967
14.4367
15.8751
17.4115
19.0495
20.7892
22.6344
24.585
26.6459
28.8176
31.1082
33.5263
36.0902
38.8204
41.7545
44.8231
48.0462
51.4168
54.9478
58.6382
62.4975
66.5265
70.734
75.121
79.6965
84.4608
89.4237
94.5849
99.9543
105.531
111.324
117.332
123.566
130.021
136.709
143.624
150.777
158.162
165.789
173.65
181.754
190.093
198.675
207.489
216.545
225.828
235.347
245.087
255.053
265.23
275.622
286.212
297.003
307.976
319.131
330.448
341.927
353.542
365.291
377.149
389.109
401.145
413.242
425.372
437.508
449.618
461.671
473.634
485.475
497.181
508.775
520.357
531.748
542.996
554.052
564.908
575.534
585.905
595.997
605.783
615.24
624.341
633.062
641.378
649.265
656.7
663.661
670.127
676.079
681.498
686.368
690.676
694.407
697.554
700.112
702.083
703.463
704.254
704.426
703.842
702.695
701.153
698.998
696.206
692.883
689.024
684.656
679.804
674.495
668.759
662.628
656.134
649.314
642.233
634.927
627.438
619.801
612.06
604.251
596.415
588.588
580.81
573.115
565.542
558.122
550.888
543.868
537.092
530.579
524.357
518.44
512.846
507.583
502.668
498.096
493.874
489.998
486.46
483.232
480.325
478.051
478.909
480.752
482.903
485.337
487.994
490.806
493.657
496.177
498.423
499.653
498.395
476.839
1.72264
0.95639
0.849021
0.881692
0.966104
1.07877
1.21286
1.36642
1.53672
1.72374
1.92922
2.15617
2.40855
2.6907
3.00506
3.35153
3.72994
4.14123
4.58701
5.06925
5.58969
6.14992
6.75107
7.39417
8.07986
8.80889
9.58131
10.3965
11.2546
12.1581
13.1074
14.1034
15.1451
16.2331
17.3687
18.5544
19.7918
21.0843
22.435
23.8474
25.324
26.8656
28.4677
30.1343
31.8658
33.6648
35.5325
37.4711
39.4818
41.5668
43.7273
45.9653
48.2818
50.6788
53.1571
55.7186
58.3639
61.0947
63.9112
66.8151
69.8062
72.8861
76.0542
79.3117
82.6579
86.0935
89.6173
93.2298
96.9295
100.716
104.589
108.545
112.585
116.705
120.904
125.18
129.53
133.951
138.44
142.993
147.607
152.279
157.002
161.772
166.584
171.433
176.311
181.213
186.129
191.053
195.976
200.886
205.775
210.634
215.459
220.248
225.012
229.779
234.609
239.401
244.13
248.787
253.365
257.853
262.243
266.524
270.687
274.723
278.621
282.372
285.966
289.394
292.647
295.716
298.592
301.268
303.735
305.988
308.02
309.826
311.401
312.742
313.847
314.713
315.334
315.693
315.771
315.639
315.3
314.717
313.878
312.811
311.52
310.016
308.307
306.404
304.319
302.063
299.652
297.1
294.428
291.651
288.785
285.845
282.849
279.811
276.75
273.679
270.617
267.576
264.575
261.626
258.743
255.941
253.232
250.626
248.136
245.77
243.537
241.444
239.497
237.699
236.056
234.568
233.238
232.065
231.063
230.339
230.381
230.695
231.17
231.781
232.467
233.235
234.024
234.73
235.368
236.047
236.233
235.351
3.33429
1.58584
1.27693
1.22882
1.27002
1.35922
1.48312
1.63726
1.81948
2.02871
2.2644
2.52641
2.81484
3.1299
3.47157
3.83961
4.2339
4.65481
5.10303
5.57951
6.0852
6.62104
7.1879
7.78669
8.41839
9.08433
9.78628
10.5222
11.2891
12.0831
12.9105
13.7755
14.6794
15.6234
16.6091
17.6379
18.7112
19.8306
20.9972
22.2121
23.4761
24.7899
26.1542
27.5708
29.0412
30.5661
32.1466
33.7837
35.4788
37.2329
39.047
40.9224
42.8599
44.8605
46.925
49.0543
51.249
53.5099
55.8375
58.2323
60.6947
63.225
65.8235
68.4902
71.2251
74.028
76.8987
79.8367
82.8415
85.9124
89.0483
92.2485
95.5116
98.8362
102.221
105.663
109.162
112.715
116.32
119.974
123.674
127.417
131.201
135.021
138.873
142.753
146.658
150.582
154.521
158.47
162.423
166.376
170.324
174.264
178.194
182.115
186.03
189.943
193.851
197.723
201.548
205.319
209.03
212.672
216.238
219.72
223.111
226.403
229.589
232.659
235.607
238.425
241.106
243.641
246.025
248.25
250.311
252.201
253.915
255.448
256.797
257.958
258.928
259.706
260.288
260.654
260.791
260.785
260.581
260.184
259.592
258.814
257.858
256.728
255.434
253.982
252.381
250.643
248.778
246.797
244.716
242.546
240.299
237.988
235.627
233.228
230.803
228.367
225.93
223.506
221.107
218.743
216.427
214.169
211.979
209.866
207.838
205.904
204.07
202.342
200.726
199.224
197.841
196.578
195.438
194.421
193.533
192.817
192.416
192.187
192.095
192.085
192.085
192.17
192.25
192.261
192.274
192.469
192.699
193.432
4.85504
2.20168
1.7405
1.63994
1.65738
1.73888
1.86478
2.0274
2.22327
2.45039
2.70722
2.99227
3.30406
3.64124
4.00263
4.38738
4.79506
5.22573
5.67985
6.15815
6.66154
7.19096
7.74732
8.33147
8.94408
9.58548
10.2553
10.9557
11.6897
12.4611
13.2698
14.1154
14.999
15.9217
16.8846
17.8891
18.9367
20.0286
21.1647
22.3458
23.5723
24.8447
26.1631
27.5268
28.9403
30.4048
31.9214
33.4912
35.1153
36.7947
38.5304
40.3235
42.1748
44.0854
46.056
48.0874
50.1802
52.3351
54.5528
56.8337
59.1783
61.5871
64.0604
66.5982
69.2009
71.8682
74.6002
77.3966
80.257
83.1809
86.1677
89.2164
92.3262
95.4959
98.7241
102.009
105.35
108.744
112.19
115.684
119.226
122.811
126.437
130.101
133.8
137.529
141.286
145.066
148.865
152.68
156.506
160.339
164.176
168.014
171.849
175.681
179.507
183.323
187.118
190.88
194.599
198.268
201.881
205.43
208.907
212.306
215.619
218.838
221.955
224.963
227.854
230.621
233.257
235.753
238.104
240.302
242.341
244.216
245.921
247.451
248.803
249.971
250.955
251.75
252.356
252.757
252.939
252.967
252.803
252.452
251.915
251.199
250.308
249.249
248.027
246.652
245.131
243.474
241.692
239.795
237.795
235.705
233.536
231.3
229.009
226.677
224.314
221.933
219.546
217.165
214.8
212.462
210.163
207.911
205.717
203.588
201.533
199.56
197.673
195.88
194.184
192.589
191.098
189.712
188.431
187.255
186.185
185.24
184.47
183.828
183.288
182.807
182.347
181.922
181.491
181.051
180.642
180.41
180.391
180.968
6.18147
2.80475
2.20899
2.06387
2.06136
2.13525
2.26056
2.42669
2.62863
2.86343
3.12888
3.42294
3.74363
4.08918
4.4581
4.84937
5.26248
5.69743
6.15466
6.63491
7.13914
7.66841
8.22378
8.80634
9.41713
10.0572
10.7277
11.4303
12.1666
12.9382
13.7459
14.5905
15.4728
16.3937
17.3542
18.3551
19.3971
20.4809
21.6079
22.7792
23.9959
25.2589
26.5698
27.9306
29.3417
30.804
32.3184
33.8861
35.5082
37.1859
38.9202
40.7124
42.5635
44.4747
46.4473
48.482
50.5794
52.7403
54.9656
57.256
59.6123
62.035
64.5246
67.0818
69.7067
72.3997
75.1609
77.9903
80.8877
83.853
86.8857
89.9852
93.1507
96.3813
99.6759
103.033
106.451
109.929
113.464
117.055
120.698
124.391
128.132
131.917
135.744
139.608
143.505
147.433
151.387
155.363
159.357
163.365
167.383
171.406
175.43
179.45
183.46
187.453
191.422
195.356
199.248
203.091
206.877
210.598
214.247
217.816
221.297
224.681
227.962
231.13
234.177
237.096
239.88
242.519
245.007
247.337
249.502
251.496
253.313
254.948
256.396
257.652
258.715
259.58
260.246
260.708
260.939
260.993
260.85
260.511
259.98
259.259
258.355
257.273
256.02
254.604
253.032
251.315
249.463
247.487
245.398
243.209
240.932
238.578
236.162
233.694
231.187
228.654
226.106
223.555
221.013
218.491
215.998
213.545
211.141
208.795
206.515
204.308
202.18
200.137
198.182
196.319
194.551
192.877
191.299
189.813
188.421
187.13
185.955
184.881
183.889
182.957
182.055
181.181
180.32
179.477
178.689
178.08
177.691
177.817
7.32961
3.37113
2.6602
2.47293
2.45183
2.51616
2.63727
2.80196
3.00377
3.23894
3.50482
3.7992
4.12007
4.46571
4.8347
5.22612
5.63948
6.07482
6.53256
7.01343
7.5184
8.04854
8.60502
9.18901
9.80172
10.4444
11.1183
11.8247
12.565
13.3404
14.1518
15.0002
15.8866
16.8119
17.7772
18.7835
19.8316
20.9227
22.058
23.2387
24.466
25.7411
27.0655
28.4404
29.8671
31.3466
32.8803
34.4694
36.1152
37.8192
39.5825
41.4066
43.2927
45.242
47.2555
49.3348
51.4811
53.6958
55.98
58.3349
60.7614
63.2605
65.8332
68.4802
71.2022
73.9998
76.8735
79.8236
82.8503
85.9534
89.133
92.3885
95.7195
99.1251
102.604
106.156
109.779
113.47
117.229
121.053
124.94
128.886
132.889
136.946
141.052
145.205
149.399
153.632
157.898
162.193
166.513
170.851
175.204
179.564
183.927
188.286
192.633
196.961
201.261
205.526
209.748
213.917
218.027
222.068
226.033
229.912
233.697
237.379
240.95
244.4
247.72
250.903
253.94
256.821
259.54
262.088
264.459
266.644
268.639
270.436
272.031
273.419
274.596
275.56
276.308
276.837
277.122
277.201
277.068
276.723
276.168
275.408
274.448
273.293
271.951
270.429
268.736
266.881
264.875
262.73
260.458
258.071
255.582
253.003
250.348
247.63
244.862
242.056
239.226
236.383
233.539
230.706
227.894
225.115
222.377
219.689
217.06
214.496
212.005
209.591
207.259
205.012
202.854
200.783
198.802
196.907
195.099
193.378
191.752
190.21
188.743
187.334
185.967
184.635
183.334
182.077
180.899
179.9
179.104
178.68
8.91467
3.99982
3.11078
2.8621
2.81468
2.86423
2.9768
3.1358
3.33305
3.56393
3.82542
4.11523
4.43148
4.77261
5.13744
5.52518
5.93547
6.36834
6.8242
7.30375
7.8079
8.33768
8.89423
9.47875
10.0924
10.7365
11.4123
12.121
12.8637
13.6418
14.4562
15.3082
16.1987
17.1289
18.1
19.113
20.1693
21.27
22.4164
23.61
24.8521
26.1442
27.4877
28.8841
30.3348
31.8414
33.4053
35.0283
36.7117
38.4574
40.2669
42.1418
44.0839
46.0947
48.1759
50.3292
52.5563
54.8589
57.2384
59.6964
62.2345
64.8539
67.556
70.342
73.213
76.1699
79.2135
82.3445
85.5634
88.8703
92.2655
95.7488
99.3196
102.978
106.721
110.55
114.462
118.456
122.53
126.68
130.905
135.201
139.566
143.994
148.483
153.028
157.625
162.268
166.953
171.674
176.425
181.2
185.993
190.797
195.605
200.408
205.199
209.969
214.71
219.412
224.067
228.665
233.199
237.657
242.031
246.312
250.489
254.553
258.494
262.302
265.969
269.483
272.837
276.021
279.025
281.843
284.464
286.882
289.09
291.081
292.85
294.391
295.7
296.773
297.609
298.206
298.538
298.636
298.501
298.131
297.529
296.701
295.651
294.385
292.911
291.236
289.369
287.32
285.101
282.724
280.202
277.546
274.771
271.891
268.919
265.869
262.755
259.591
256.39
253.165
249.929
246.694
243.47
240.27
237.103
233.978
230.904
227.889
224.939
222.06
219.258
216.535
213.896
211.341
208.871
206.485
204.184
201.966
199.833
197.783
195.806
193.895
192.039
190.234
188.482
186.797
185.213
183.81
182.588
181.612
10.9519
4.69012
3.55472
3.22283
3.13986
3.16907
3.26917
3.41926
3.60909
3.833
4.08752
4.37026
4.67941
5.01364
5.37193
5.75367
6.15858
6.58674
7.03853
7.51459
8.01576
8.54303
9.09747
9.68022
10.2925
10.9355
11.6105
12.3187
13.0613
13.8397
14.655
15.5085
16.4014
17.335
18.3106
19.3295
20.3933
21.5032
22.661
23.8681
25.1262
26.437
27.8023
29.2237
30.703
32.2422
33.843
35.5074
37.2375
39.0351
40.9023
42.8413
44.8541
46.9428
49.1097
51.3567
53.6861
56.1
58.6005
61.1896
63.8692
66.6412
69.5074
72.4695
75.5291
78.6873
81.9456
85.3049
88.766
92.3295
95.9956
99.7645
103.636
107.609
111.684
115.858
120.131
124.499
128.962
133.517
138.159
142.886
147.695
152.58
157.536
162.56
167.646
172.787
177.978
183.212
188.483
193.782
199.103
204.436
209.774
215.107
220.426
225.722
230.984
236.203
241.369
246.471
251.5
256.445
261.296
266.041
270.67
275.172
279.536
283.753
287.811
291.699
295.409
298.929
302.249
305.362
308.257
310.927
313.364
315.56
317.51
319.208
320.649
321.829
322.746
323.398
323.763
323.866
323.708
323.29
322.615
321.688
320.515
319.101
317.455
315.584
313.499
311.209
308.726
306.064
303.236
300.254
297.134
293.89
290.537
287.089
283.562
279.97
276.328
272.649
268.947
265.234
261.522
257.824
254.15
250.509
246.911
243.364
239.876
236.454
233.102
229.826
226.63
223.516
220.485
217.54
214.679
211.903
209.214
206.61
204.089
201.644
199.274
196.975
194.753
192.623
190.615
188.794
187.136
185.648
12.9464
5.34468
3.95916
3.53994
3.41806
3.42433
3.50971
3.64901
3.82981
4.04539
4.29172
4.56625
4.8672
5.19332
5.54378
5.91806
6.31599
6.73766
7.18345
7.65397
8.15
8.67248
9.22244
9.80094
10.4092
11.0484
11.7198
12.4248
13.1647
13.9409
14.7547
15.6075
16.5007
17.4359
18.4145
19.4382
20.5084
21.627
22.7956
24.0163
25.291
26.6218
28.0109
29.4601
30.9719
32.5483
34.1917
35.9044
37.6889
39.5477
41.4833
43.4983
45.5954
47.7772
50.0463
52.4056
54.8576
57.4052
60.0509
62.7974
65.6471
68.6025
71.666
74.8396
78.1255
81.5254
85.0411
88.6739
92.4249
96.295
100.285
104.394
108.624
112.972
117.439
122.023
126.722
131.534
136.456
141.486
146.619
151.852
157.179
162.596
168.098
173.678
179.33
185.047
190.821
196.645
202.511
208.409
214.331
220.267
226.206
232.139
238.055
243.942
249.79
255.588
261.323
266.985
272.562
278.043
283.415
288.666
293.786
298.761
303.58
308.232
312.705
316.987
321.068
324.936
328.582
331.995
335.167
338.087
340.748
343.142
345.262
347.104
348.661
349.929
350.906
351.59
351.962
352.044
351.834
351.336
350.553
349.492
348.158
346.558
344.699
342.59
340.242
337.665
334.873
331.877
328.693
325.334
321.816
318.155
314.366
310.465
306.467
302.388
298.244
294.049
289.818
285.564
281.3
277.039
272.791
268.568
264.38
260.235
256.142
252.109
248.142
244.247
240.429
236.693
233.041
229.476
225.999
222.614
219.323
216.126
213.024
210.017
207.105
204.29
201.578
198.987
196.539
194.286
192.187
190.222
14.7941
5.93326
4.31051
3.8069
3.64479
3.62868
3.69818
3.82573
3.99675
4.20339
4.44109
4.70702
4.99935
5.31687
5.65883
6.02481
6.41468
6.82858
7.26686
7.73013
8.2192
8.73506
9.2788
9.85097
10.4529
11.0859
11.7515
12.4511
13.1862
13.9583
14.7688
15.6195
16.5118
17.4476
18.4286
19.4565
20.5333
21.6609
22.8411
24.076
25.3687
26.7219
28.1379
29.6192
31.1685
32.7884
34.4817
36.2513
38.1003
40.0315
42.0483
44.1537
46.351
48.6436
51.0346
53.5276
56.1258
58.8326
61.6513
64.5852
67.6373
70.8107
74.1084
77.5331
81.0872
84.7732
88.5931
92.5486
96.6412
100.872
105.242
109.75
114.398
119.185
124.109
129.168
134.362
139.686
145.139
150.715
156.411
162.222
168.142
174.165
180.285
186.494
192.784
199.148
205.576
212.059
218.588
225.151
231.738
238.338
244.938
251.528
258.094
264.624
271.106
277.526
283.872
290.131
296.289
302.335
308.254
314.033
319.66
325.122
330.405
335.497
340.385
345.059
349.504
353.711
357.669
361.366
364.793
367.941
370.801
373.365
375.627
377.58
379.219
380.54
381.54
382.216
382.557
382.578
382.277
381.656
380.724
379.485
377.946
376.114
373.998
371.606
368.95
366.04
362.891
359.515
355.929
352.146
348.183
344.056
339.781
335.376
330.857
326.241
321.543
316.78
311.967
307.119
302.248
297.369
292.493
287.633
282.798
278
273.247
268.548
263.911
259.343
254.851
250.44
246.115
241.882
237.744
233.706
229.772
225.947
222.234
218.637
215.16
211.808
208.589
205.519
202.617
199.923
197.384
194.967
16.4402
6.44318
4.60399
4.02204
3.82091
3.78316
3.83708
3.95277
4.11383
4.31143
4.54045
4.79779
5.08152
5.39039
5.72365
6.08096
6.4623
6.86788
7.29764
7.75235
8.23301
8.74079
9.27713
9.84238
10.4378
11.0646
11.7244
12.4186
13.1488
13.9168
14.7242
15.5727
16.4644
17.4009
18.3846
19.4174
20.5016
21.6394
22.8329
24.0849
25.4003
26.7811
28.2303
29.7511
31.3467
33.0203
34.7752
36.615
38.5433
40.5636
42.68
44.8962
47.2162
49.644
52.1837
54.8394
57.6151
60.5149
63.5429
66.7029
69.9988
73.4342
77.0127
80.7376
84.6118
88.6381
92.8189
97.1563
101.652
106.307
111.122
116.098
121.234
126.529
131.982
137.591
143.352
149.264
155.321
161.52
167.854
174.317
180.904
187.606
194.415
201.324
208.321
215.398
222.543
229.747
236.996
244.28
251.584
258.897
266.204
273.491
280.746
287.952
295.097
302.165
309.142
316.014
322.765
329.383
335.851
342.156
348.283
354.22
359.95
365.463
370.743
375.779
380.558
385.068
389.299
393.239
396.878
400.207
403.217
405.901
408.252
410.264
411.932
413.251
414.22
414.834
415.09
414.996
414.547
413.749
412.613
411.144
409.349
407.235
404.811
402.087
399.074
395.784
392.231
388.429
384.394
380.142
375.689
371.052
366.248
361.295
356.21
351.012
345.717
340.342
334.903
329.415
323.894
318.353
312.805
307.263
301.738
296.242
290.785
285.376
280.026
274.743
269.534
264.408
259.372
254.432
249.596
244.871
240.263
235.781
231.431
227.222
223.16
219.253
215.512
211.949
208.582
205.442
202.465
199.62
17.8502
6.86882
4.83948
4.18753
3.95055
3.89228
3.93128
4.03539
4.18667
4.37542
4.59602
4.8451
5.1206
5.42126
5.74599
6.09461
6.46739
6.86498
7.28711
7.7344
8.20766
8.70779
9.23562
9.79191
10.3786
10.9972
11.6496
12.3373
13.0622
13.8262
14.6314
15.4798
16.3736
17.3151
18.3065
19.3507
20.4505
21.6077
22.825
24.1048
25.4521
26.8708
28.3648
29.9383
31.5958
33.3407
35.1769
37.1087
39.1403
41.2761
43.5209
45.8792
48.3559
50.9558
53.6837
56.5445
59.543
62.6842
65.9728
69.4134
73.0104
76.7681
80.6907
84.7817
89.0446
93.4825
98.0979
102.893
107.869
113.028
118.37
123.895
129.602
135.49
141.556
147.798
154.212
160.794
167.539
174.44
181.491
188.684
196.012
203.464
211.032
218.705
226.471
234.319
242.236
250.209
258.224
266.268
274.326
282.382
290.421
298.427
306.385
314.278
322.09
329.805
337.407
344.88
352.208
359.375
366.365
373.163
379.755
386.124
392.256
398.138
403.756
409.096
414.147
418.896
423.332
427.445
431.224
434.66
437.747
440.475
442.839
444.834
446.454
447.698
448.561
449.042
449.139
448.862
448.192
447.151
445.747
443.986
441.875
439.42
436.632
433.522
430.1
426.38
422.375
418.1
413.572
408.806
403.82
398.632
393.259
387.719
382.032
376.214
370.285
364.261
358.161
352
345.793
339.556
333.302
327.045
320.798
314.571
308.378
302.229
296.135
290.105
284.15
278.28
272.504
266.83
261.27
255.833
250.529
245.369
240.364
235.526
230.865
226.391
222.116
218.053
214.214
210.626
207.218
203.968
19.0066
7.20914
5.0194
4.30734
4.03872
3.96163
3.98682
4.08004
4.22212
4.4027
4.61538
4.8567
5.12467
5.41833
5.73625
6.07806
6.44362
6.83275
7.24576
7.6839
8.1482
8.63981
9.16005
9.71028
10.2919
10.9066
11.5561
12.2423
12.9675
13.7338
14.5437
15.4
16.3047
17.2601
18.2693
19.335
20.46
21.6456
22.8974
24.2203
25.6189
27.0978
28.6612
30.314
32.0611
33.908
35.8591
37.9193
40.0939
42.3882
44.8079
47.3585
50.0456
52.875
55.8523
58.9833
62.2735
65.7286
69.354
73.1549
77.1363
81.3029
85.659
90.2087
94.9554
99.9022
105.051
110.405
115.964
121.73
127.702
133.879
140.259
146.841
153.62
160.593
167.755
175.099
182.619
190.308
198.157
206.156
214.296
222.565
230.952
239.444
248.027
256.688
265.412
274.184
282.988
291.808
300.627
309.429
318.196
326.909
335.553
344.108
352.557
360.882
369.066
377.091
384.94
392.596
400.043
407.264
414.243
420.965
427.415
433.579
439.443
444.994
450.219
455.107
459.648
463.83
467.646
471.086
474.144
476.814
479.088
480.964
482.438
483.508
484.172
484.428
484.282
483.723
482.751
481.39
479.644
477.519
475.022
472.162
468.948
465.393
461.507
457.303
452.796
448.002
442.936
437.616
432.059
426.283
420.306
414.147
407.825
401.358
394.766
388.067
381.279
374.419
367.503
360.547
353.565
346.571
339.579
332.602
325.653
318.743
311.885
305.091
298.372
291.741
285.207
278.785
272.486
266.322
260.309
254.461
248.791
243.316
238.048
233.001
228.188
223.621
219.311
215.279
211.452
207.82
19.9015
7.4651
5.14706
4.38604
4.0909
3.99743
4.01064
4.09407
4.2279
4.40155
4.60822
4.84389
5.106
5.39275
5.7033
6.03778
6.39638
6.7796
7.18776
7.62166
8.08236
8.57117
9.08958
9.63931
10.2224
10.8402
11.4947
12.1882
12.9234
13.7028
14.5291
15.4049
16.3309
17.312
18.3521
19.455
20.6252
21.8668
23.1846
24.5839
26.0697
27.6473
29.3223
31.1005
32.988
34.9905
37.1139
39.3646
41.7488
44.2733
46.9447
49.7696
52.7544
55.9057
59.23
62.7336
66.4228
70.3037
74.3822
78.6638
83.1536
87.8564
92.7763
97.9171
103.282
108.873
114.691
120.739
127.016
133.521
140.254
147.211
154.389
161.784
169.392
177.206
185.218
193.422
201.809
210.367
219.088
227.959
236.968
246.102
255.347
264.688
274.109
283.594
293.127
302.691
312.267
321.838
331.385
340.89
350.332
359.694
368.956
378.099
387.103
395.95
404.621
413.097
421.361
429.395
437.182
444.704
451.947
458.893
465.529
471.841
477.814
483.437
488.698
493.586
498.091
502.204
505.918
509.225
512.119
514.596
516.651
518.281
519.484
520.262
520.611
520.534
520.03
519.08
517.718
515.946
513.772
511.202
508.245
504.907
501.202
497.14
492.732
487.992
482.935
477.576
471.932
466.021
459.858
453.463
446.854
440.049
433.069
425.932
418.657
411.265
403.773
396.2
388.561
380.873
373.151
365.41
357.665
349.928
342.215
334.538
326.91
319.346
311.857
304.459
297.165
289.99
282.948
276.057
269.333
262.795
256.461
250.348
244.476
238.859
233.512
228.448
223.673
219.21
214.979
210.995
20.5276
7.63517
5.22475
4.4279
4.11279
4.00622
4.01015
4.08674
4.21482
4.38266
4.5835
4.81386
5.0715
5.35509
5.66367
5.99708
6.35567
6.7395
7.14919
7.58583
8.05073
8.54546
9.07175
9.63146
10.2264
10.8574
11.528
12.2411
13.0001
13.808
14.6684
15.5852
16.5621
17.6032
18.7132
19.8969
21.1596
22.5069
23.9444
25.4785
27.1152
28.8611
30.7229
32.7075
34.8224
37.0742
39.4703
42.0187
44.7272
47.6043
50.6578
53.8951
57.3231
60.9489
64.7793
68.8209
73.0801
77.563
82.275
87.2213
92.4064
97.8339
103.507
109.428
115.599
122.02
128.692
135.612
142.78
150.191
157.844
165.732
173.85
182.191
190.748
199.512
208.474
217.623
226.948
236.437
246.076
255.852
265.75
275.755
285.85
296.019
306.244
316.507
326.791
337.075
347.341
357.57
367.741
377.834
387.83
397.708
407.449
417.031
426.436
435.644
444.636
453.392
461.895
470.127
478.071
485.711
493.029
500.012
506.644
512.914
518.807
524.314
529.423
534.125
538.412
542.275
545.71
548.71
551.272
553.393
555.07
556.3
557.085
557.431
557.331
556.792
555.786
554.35
552.489
550.207
547.513
544.413
540.915
537.028
532.764
528.134
523.149
517.823
512.17
506.207
499.95
493.415
486.621
479.583
472.322
464.856
457.203
449.384
441.419
433.327
425.126
416.836
408.472
400.053
391.593
383.107
374.611
366.119
357.646
349.206
340.815
332.487
324.236
316.079
308.033
300.114
292.339
284.729
277.305
270.089
263.102
256.365
249.9
243.726
237.861
232.315
227.094
222.219
217.609
213.306
20.9774
7.74959
5.26708
4.44232
4.11254
3.99729
3.99461
4.06529
4.18947
4.35598
4.55753
4.78988
5.05066
5.33853
5.65278
5.99319
6.3598
6.75247
7.17281
7.62236
8.10287
8.61637
9.16511
9.75164
10.3789
11.0497
11.7675
12.536
13.3593
14.2416
15.1878
16.203
17.2923
18.4615
19.7163
21.0634
22.5094
24.0616
25.7273
27.5145
29.431
31.4849
33.6843
36.0373
38.5513
41.2353
44.0986
47.151
50.4021
53.8633
57.5442
61.451
65.5899
69.9671
74.5885
79.4597
84.5856
89.9709
95.619
101.533
107.715
114.165
120.885
127.874
135.128
142.647
150.427
158.462
166.747
175.277
184.043
193.037
202.251
211.675
221.298
231.108
241.093
251.24
261.536
271.965
282.512
293.162
303.899
314.704
325.561
336.451
347.356
358.257
369.135
379.969
390.74
401.429
412.014
422.476
432.795
442.951
452.923
462.692
472.239
481.543
490.587
499.353
507.821
515.977
523.802
531.283
538.403
545.148
551.506
557.464
563.014
568.144
572.845
577.11
580.933
584.308
587.231
589.7
591.713
593.268
594.366
595.004
595.182
594.929
594.204
593.018
591.391
589.33
586.84
583.93
580.605
576.873
572.742
568.219
563.319
558.05
552.424
546.454
540.155
533.542
526.632
519.44
511.983
504.278
496.343
488.197
479.858
471.346
462.681
453.882
444.968
435.959
426.871
417.721
408.525
399.299
390.058
380.817
371.592
362.399
353.254
344.173
335.172
326.27
317.485
308.837
300.345
292.034
283.928
276.054
268.434
261.095
254.061
247.353
240.978
234.961
229.307
224.039
219.072
214.504
21.2091
7.78393
5.26674
4.43272
4.09769
3.97891
3.97752
4.05276
4.18326
4.3573
4.56693
4.80905
5.08165
5.38368
5.71484
6.07542
6.46633
6.88869
7.34413
7.83483
8.36334
8.93263
9.54607
10.2074
10.9209
11.691
12.5228
13.4214
14.3928
15.4432
16.5795
17.8088
19.1388
20.5774
22.1333
23.8155
25.6333
27.5965
29.7148
31.9983
34.4571
37.1012
39.9405
42.9845
46.2425
49.7241
53.439
57.3969
61.6068
66.0778
70.8227
75.845
81.1466
86.7299
92.5965
98.748
105.185
111.906
118.911
126.198
133.762
141.599
149.705
158.073
166.696
175.567
184.677
194.017
203.577
213.346
223.315
233.47
243.8
254.294
264.936
275.715
286.616
297.624
308.724
319.902
331.14
342.423
353.733
365.055
376.37
387.661
398.91
410.097
421.205
432.215
443.109
453.866
464.468
474.897
485.133
495.159
504.954
514.502
523.784
532.782
541.478
549.856
557.901
565.595
572.926
579.879
586.441
592.598
598.339
603.656
608.541
612.985
616.981
620.523
623.609
626.235
628.397
630.102
631.343
632.123
632.445
632.308
631.727
630.664
629.168
627.231
624.861
622.065
618.85
615.224
611.194
606.765
601.947
596.744
591.17
585.234
578.946
572.318
565.364
558.1
550.541
542.7
534.595
526.24
517.653
508.851
499.853
490.678
481.346
471.875
462.284
452.593
442.819
432.979
423.087
413.162
403.216
393.268
383.332
373.428
363.57
353.777
344.068
334.464
324.983
315.649
306.483
297.513
288.762
280.256
272.027
264.109
256.534
249.336
242.536
236.132
230.127
224.547
219.298
214.527
21.2613
7.76272
5.24208
4.40913
4.08108
3.97334
3.98369
4.07146
4.2169
4.40905
4.64173
4.91144
5.21651
5.55653
5.93195
6.34402
6.79465
7.28631
7.82205
8.40552
9.04099
9.73332
10.4879
11.3108
12.2087
13.189
14.2596
15.429
16.7064
18.1016
19.6253
21.2885
23.1029
25.0804
27.2333
29.5739
32.1151
34.8696
37.8494
41.0663
44.5313
48.2555
52.2488
56.5198
61.0757
65.9238
71.0714
76.5234
82.2842
88.3598
94.7531
101.463
108.48
115.797
123.408
131.305
139.481
147.927
156.633
165.591
174.789
184.217
193.863
203.715
213.763
223.993
234.394
244.953
255.657
266.495
277.454
288.521
299.685
310.931
322.248
333.623
345.041
356.49
367.956
379.424
390.881
402.312
413.702
425.036
436.299
447.475
458.549