/*--------------------------------*- C++ -*----------------------------------*\
| =========                 |                                                 |
| \\      /  F ield         | OpenFOAM: The Open Source CFD Toolbox           |
|  \\    /   O peration     | Version:  2406                                  |
|   \\  /    A nd           | Website:  www.openfoam.com                      |
|    \\/     M anipulation  |                                                 |
\*---------------------------------------------------------------------------*/
FoamFile
{
    version     2.0;
    format      ascii;
    arch        "LSB;label=32;scalar=64";
    class       volScalarField;
    location    "200";
    object      k;
}
// * * * * * * * * * * * * * * * * * * * * * * * * * * * * * * * * * * * * * //

dimensions      [0 2 -2 0 0 0 0];

internalField   nonuniform List<scalar> 
12225
(
0.571497
0.987648
1.28116
1.45558
1.54167
1.57743
1.57567
1.56724
1.54714
1.52373
1.50047
1.47801
1.45796
1.43901
1.42339
1.40766
1.39704
1.38229
0.43845
0.49688
0.521949
0.534909
0.542875
0.547415
0.550224
0.552223
0.556067
0.559381
0.565608
0.571056
0.579591
0.586815
0.596792
0.605225
0.615302
0.625144
0.38757
0.417492
0.424187
0.421531
0.415046
0.404957
0.393815
0.382791
0.371955
0.362406
0.353264
0.34609
0.338999
0.334321
0.329129
0.326692
0.323052
0.322333
0.37618
0.384817
0.388124
0.387417
0.385436
0.381133
0.375688
0.369558
0.36312
0.35656
0.35011
0.343801
0.337821
0.332064
0.326779
0.32168
0.317167
0.312722
0.374178
0.375374
0.376397
0.37593
0.374799
0.372506
0.369617
0.366136
0.362485
0.35847
0.354557
0.350371
0.34652
0.342385
0.338793
0.334821
0.331607
0.327848
0.373737
0.372544
0.371997
0.371082
0.369917
0.368266
0.36634
0.364031
0.361641
0.358968
0.356373
0.353537
0.350916
0.348048
0.345521
0.342702
0.340349
0.337627
0.373769
0.371725
0.370231
0.368831
0.367465
0.36594
0.364345
0.362552
0.360734
0.35875
0.356813
0.354731
0.352769
0.350666
0.348748
0.346672
0.344852
0.342831
0.373818
0.371563
0.369621
0.36786
0.366251
0.364663
0.363122
0.361522
0.359945
0.358298
0.356695
0.355026
0.353429
0.351769
0.350213
0.348588
0.347103
0.345524
0.373833
0.371554
0.369458
0.367511
0.365722
0.364025
0.362428
0.360861
0.359355
0.357852
0.356401
0.354943
0.353541
0.35213
0.350785
0.349426
0.348149
0.346843
0.373832
0.37156
0.369425
0.36741
0.36553
0.363752
0.362086
0.360493
0.358981
0.357516
0.356115
0.354748
0.353437
0.352151
0.350919
0.349706
0.348551
0.347405
0.37383
0.371561
0.369417
0.367384
0.365468
0.363653
0.361942
0.360317
0.358779
0.357309
0.355912
0.35457
0.353289
0.352054
0.350872
0.349729
0.348635
0.347574
0.373828
0.371559
0.369412
0.367375
0.365448
0.36362
0.36189
0.360247
0.358691
0.35721
0.355803
0.35446
0.353181
0.351958
0.35079
0.34967
0.348599
0.347571
0.373827
0.371557
0.369407
0.367369
0.365437
0.363603
0.361865
0.360214
0.358646
0.357156
0.35574
0.354391
0.353107
0.351884
0.350716
0.349602
0.348537
0.347521
0.373827
0.371555
0.369403
0.367362
0.365428
0.363591
0.361848
0.360193
0.358619
0.357123
0.3557
0.354346
0.353056
0.351828
0.350657
0.349541
0.348475
0.347459
0.373826
0.371553
0.369399
0.367357
0.36542
0.363581
0.361835
0.360177
0.3586
0.3571
0.355673
0.354315
0.353021
0.351789
0.350614
0.349494
0.348425
0.347406
0.373826
0.371552
0.369396
0.367352
0.365413
0.363572
0.361824
0.360163
0.358584
0.357082
0.355652
0.354291
0.352994
0.351759
0.350581
0.349458
0.348386
0.347364
0.373825
0.371551
0.369395
0.367349
0.365408
0.363566
0.361816
0.360153
0.358571
0.357067
0.355635
0.354272
0.352973
0.351735
0.350555
0.34943
0.348356
0.347331
0.373825
0.371551
0.369393
0.367347
0.365405
0.363561
0.36181
0.360145
0.358563
0.357057
0.355623
0.354258
0.352958
0.351718
0.350536
0.349409
0.348334
0.347308
0.373825
0.371551
0.369393
0.367347
0.365404
0.36356
0.361808
0.360143
0.358559
0.357052
0.355618
0.354252
0.352951
0.35171
0.350528
0.3494
0.348324
0.347297
0.373825
0.371551
0.369394
0.367348
0.365406
0.363562
0.361811
0.360146
0.358562
0.357056
0.355622
0.354256
0.352955
0.351715
0.350532
0.349405
0.348329
0.347302
0.373826
0.371552
0.369396
0.367351
0.36541
0.363567
0.361816
0.360153
0.358571
0.357065
0.355633
0.354269
0.352969
0.35173
0.35055
0.349423
0.348349
0.347323
0.373826
0.371553
0.369398
0.367355
0.365416
0.363575
0.361828
0.360168
0.358591
0.357092
0.355665
0.354306
0.353012
0.351779
0.350603
0.34948
0.348408
0.347383
0.373826
0.371555
0.369401
0.367363
0.365432
0.363605
0.361875
0.360237
0.358681
0.357203
0.355794
0.354451
0.353167
0.351939
0.350762
0.349635
0.348552
0.347512
0.373826
0.371556
0.369413
0.367418
0.365545
0.363794
0.362138
0.360572
0.359071
0.357632
0.35624
0.354896
0.353589
0.352323
0.35109
0.349894
0.348728
0.347601
0.373819
0.371564
0.369582
0.367846
0.366223
0.364712
0.363219
0.361754
0.360267
0.358787
0.357288
0.3558
0.354306
0.352833
0.351361
0.349924
0.348495
0.347109
0.373767
0.371946
0.370917
0.369977
0.368913
0.367767
0.366326
0.364737
0.362934
0.361062
0.35906
0.357054
0.354971
0.352925
0.350845
0.348825
0.346792
0.344839
0.374093
0.375201
0.37726
0.37756
0.377092
0.375804
0.373488
0.370864
0.367802
0.364686
0.361328
0.358027
0.354602
0.351291
0.347922
0.3447
0.341472
0.338414
0.377677
0.394076
0.402944
0.402353
0.400307
0.396045
0.390666
0.385166
0.379133
0.373303
0.367221
0.361476
0.355719
0.350305
0.345128
0.340198
0.335726
0.331325
0.405777
0.438977
0.451189
0.45581
0.459111
0.462261
0.464972
0.467229
0.469224
0.470844
0.472492
0.473929
0.475548
0.477075
0.479214
0.480839
0.483679
0.485395
0.479012
0.684927
0.865146
0.990809
1.09437
1.17583
1.23938
1.28341
1.31504
1.33206
1.3432
1.34353
1.34141
1.33629
1.32784
1.31772
1.3068
1.29535
0.00434246
0.00711353
0.0100308
0.0125643
0.0146178
0.0162355
0.0175776
0.0188051
0.0199218
0.0209831
0.0220461
0.0231663
0.0244149
0.025913
0.0277213
0.0297605
0.0319639
0.0343179
0.0368287
0.0395148
0.04239
0.0454706
0.0487627
0.052276
0.0560109
0.0599764
0.0641772
0.068589
0.0731864
0.0779653
0.082912
0.0880265
0.0932984
0.0987289
0.104308
0.110041
0.115919
0.121956
0.128165
0.13458
0.141236
0.148206
0.155353
0.162668
0.170144
0.177796
0.185615
0.193613
0.201783
0.210135
0.218663
0.227376
0.236267
0.245345
0.254604
0.264051
0.273678
0.283495
0.29349
0.303673
0.314031
0.324575
0.33529
0.346185
0.357244
0.368477
0.379867
0.391421
0.403121
0.414974
0.426962
0.439091
0.451339
0.463713
0.47619
0.488775
0.501445
0.514204
0.527029
0.539922
0.552858
0.565838
0.578838
0.591858
0.604869
0.617871
0.630835
0.643759
0.656613
0.669387
0.682054
0.694589
0.706965
0.719153
0.731125
0.742855
0.754332
0.765576
0.776681
0.787533
0.798136
0.808465
0.818514
0.82826
0.837688
0.84678
0.855518
0.863885
0.871863
0.879436
0.886586
0.893299
0.899558
0.90535
0.910659
0.915474
0.919784
0.923577
0.926844
0.929577
0.931772
0.933428
0.934546
0.935126
0.935172
0.934657
0.933471
0.931743
0.929646
0.92705
0.923833
0.920138
0.915944
0.911276
0.906153
0.900595
0.894625
0.888267
0.881545
0.874487
0.867151
0.859567
0.85177
0.843794
0.835673
0.827442
0.819137
0.810793
0.802445
0.794126
0.78587
0.777709
0.769676
0.761801
0.754114
0.746643
0.739413
0.732447
0.725766
0.719385
0.713323
0.707585
0.702185
0.697132
0.692421
0.688048
0.684149
0.682348
0.682723
0.683103
0.683872
0.684945
0.686296
0.687855
0.689551
0.691221
0.692556
0.692916
0.691154
0.670985
0.010783
0.0176319
0.0242804
0.0294077
0.0336649
0.0373792
0.040729
0.0438788
0.0470135
0.0502489
0.0536499
0.0572465
0.0610484
0.0650524
0.0692502
0.0736364
0.0782081
0.0829745
0.0879534
0.0931686
0.0986428
0.104397
0.110448
0.116808
0.123485
0.130486
0.137813
0.145468
0.153448
0.161751
0.170369
0.179305
0.188559
0.198134
0.208031
0.218256
0.228794
0.23963
0.250765
0.262201
0.273939
0.285978
0.298306
0.31093
0.323854
0.337086
0.350629
0.364491
0.378674
0.393184
0.408025
0.423202
0.438719
0.45458
0.470787
0.487347
0.504259
0.521527
0.539152
0.557137
0.575481
0.594185
0.613247
0.632668
0.652444
0.672574
0.693052
0.713877
0.73504
0.756539
0.778364
0.800509
0.822964
0.845721
0.868767
0.892094
0.915685
0.93953
0.963614
0.987922
1.01244
1.03714
1.06202
1.08706
1.11222
1.13749
1.16285
1.18828
1.21374
1.23921
1.26467
1.29006
1.31535
1.34051
1.36548
1.3902
1.41462
1.43864
1.46218
1.48539
1.50827
1.53081
1.55296
1.57469
1.59597
1.61677
1.63703
1.65673
1.67583
1.69429
1.71207
1.72914
1.74545
1.76097
1.77567
1.78952
1.80247
1.8145
1.82558
1.83569
1.8448
1.8529
1.85998
1.86602
1.87102
1.87501
1.87769
1.87912
1.87972
1.87952
1.87804
1.8755
1.87194
1.86737
1.86184
1.85538
1.84802
1.83982
1.83084
1.82112
1.81074
1.79976
1.78825
1.77628
1.76391
1.75121
1.73825
1.72511
1.71185
1.69856
1.68529
1.67212
1.65913
1.64637
1.63392
1.62183
1.61017
1.59898
1.58832
1.57823
1.56877
1.55994
1.55178
1.54432
1.53755
1.53149
1.52616
1.5218
1.51835
1.51563
1.51354
1.51191
1.51061
1.50946
1.50825
1.50676
1.50455
1.50149
1.49468
1.47148
0.0167602
0.0285822
0.0375768
0.044335
0.0500286
0.0551622
0.060011
0.0647611
0.0695489
0.0744677
0.0795738
0.0848949
0.0904403
0.0962105
0.102204
0.10842
0.114866
0.121556
0.128509
0.13575
0.1433
0.151184
0.159419
0.168023
0.177007
0.18638
0.196151
0.206322
0.216895
0.22787
0.23924
0.251008
0.26317
0.275725
0.288669
0.302001
0.315714
0.329807
0.344278
0.359127
0.374353
0.389957
0.405938
0.422302
0.43905
0.45619
0.473725
0.491661
0.510002
0.528752
0.547916
0.567498
0.587501
0.607929
0.628784
0.65007
0.671787
0.693938
0.716523
0.739543
0.762995
0.786881
0.811196
0.835938
0.861104
0.88669
0.912688
0.939093
0.965898
0.993094
1.02067
1.04862
1.07693
1.10559
1.13458
1.16389
1.1935
1.2234
1.25357
1.28399
1.31464
1.3455
1.37654
1.40774
1.43909
1.47054
1.50207
1.53367
1.56528
1.59689
1.62845
1.65994
1.69131
1.72252
1.75354
1.78433
1.81484
1.84505
1.87493
1.90446
1.93359
1.9623
1.99054
2.01826
2.04542
2.07196
2.09786
2.12305
2.14748
2.17112
2.19391
2.2158
2.23675
2.25672
2.27564
2.29349
2.31022
2.32578
2.34015
2.35329
2.36517
2.37576
2.38505
2.39302
2.39965
2.40494
2.40885
2.41116
2.41212
2.41207
2.41053
2.40764
2.40345
2.39799
2.39129
2.3834
2.37438
2.36429
2.35318
2.34114
2.32823
2.31455
2.30017
2.28517
2.26965
2.25368
2.23736
2.22077
2.20401
2.18716
2.17032
2.15357
2.13699
2.12068
2.10471
2.08915
2.07409
2.05958
2.0457
2.03249
2.02
2.00828
1.99735
1.98724
1.97797
1.96953
1.9619
1.95513
1.94917
1.94398
1.93937
1.93522
1.93135
1.92755
1.92362
1.91942
1.91465
1.90939
1.90147
1.88344
0.0215391
0.0391504
0.0504325
0.0586872
0.0655902
0.0718142
0.0777148
0.0835136
0.0893604
0.0953558
0.101562
0.108012
0.11472
0.12169
0.128922
0.136421
0.144196
0.152263
0.160642
0.169358
0.178435
0.187895
0.197757
0.208039
0.218753
0.229906
0.241505
0.253548
0.266034
0.278965
0.292341
0.306163
0.320428
0.335133
0.350276
0.365854
0.381865
0.398307
0.41518
0.432483
0.450216
0.468382
0.486983
0.506022
0.525504
0.545435
0.565819
0.586662
0.607968
0.629744
0.651992
0.674719
0.697926
0.72162
0.745801
0.770474
0.79564
0.821301
0.847458
0.874111
0.901258
0.9289
0.957033
0.985654
1.01476
1.04434
1.0744
1.10492
1.1359
1.16733
1.1992
1.23149
1.2642
1.2973
1.33079
1.36464
1.39884
1.43337
1.46821
1.50333
1.53872
1.57435
1.6102
1.64623
1.68241
1.71873
1.75514
1.79162
1.82813
1.86464
1.90111
1.9375
1.97378
2.0099
2.04583
2.08153
2.11696
2.15208
2.18685
2.22122
2.25516
2.2886
2.3215
2.3538
2.38546
2.41642
2.44663
2.47603
2.50457
2.53219
2.55884
2.58446
2.609
2.6324
2.6546
2.67557
2.69525
2.71359
2.73056
2.7461
2.76019
2.77279
2.78388
2.79343
2.80143
2.80787
2.81274
2.81589
2.8173
2.81745
2.81596
2.81291
2.80833
2.80226
2.79475
2.78584
2.7756
2.76409
2.75138
2.73755
2.72269
2.70689
2.69024
2.67284
2.65477
2.63615
2.61707
2.59764
2.57795
2.55811
2.53822
2.51837
2.49867
2.47922
2.46009
2.44138
2.42318
2.40555
2.38857
2.37231
2.35681
2.34213
2.32829
2.31533
2.30324
2.29202
2.28165
2.27211
2.26335
2.25531
2.24785
2.24082
2.23406
2.22737
2.22059
2.21364
2.2064
2.19906
2.19004
2.17475
0.0253054
0.048872
0.0625129
0.0722766
0.080344
0.087553
0.0943391
0.100966
0.107608
0.114383
0.12137
0.128614
0.136142
0.143966
0.152095
0.160537
0.169304
0.178411
0.187879
0.197729
0.207982
0.218659
0.229776
0.241348
0.253385
0.265894
0.27888
0.292345
0.306291
0.32072
0.335631
0.351022
0.366893
0.383241
0.400065
0.417363
0.435135
0.45338
0.472098
0.49129
0.510959
0.531106
0.551735
0.572852
0.594463
0.616575
0.639192
0.662321
0.685968
0.71014
0.734841
0.760076
0.785851
0.812171
0.839038
0.866458
0.894432
0.922964
0.952054
0.981703
1.01191
1.04268
1.074
1.10588
1.13831
1.17128
1.20479
1.23883
1.2734
1.30848
1.34406
1.38013
1.41667
1.45367
1.49112
1.52898
1.56725
1.60591
1.64492
1.68427
1.72392
1.76386
1.80405
1.84446
1.88506
1.92581
1.96669
2.00766
2.04867
2.0897
2.13069
2.17162
2.21244
2.25311
2.29358
2.33381
2.37375
2.41336
2.45258
2.49136
2.52964
2.56739
2.60453
2.64102
2.67679
2.71178
2.74594
2.7792
2.8115
2.84279
2.87299
2.90205
2.92991
2.95651
2.98178
3.00567
3.02813
3.04911
3.06854
3.08639
3.10262
3.11719
3.13006
3.14121
3.15061
3.15826
3.16414
3.1682
3.17026
3.17074
3.16946
3.16641
3.16164
3.15517
3.14705
3.13734
3.1261
3.1134
3.09931
3.08393
3.06734
3.04963
3.03092
3.0113
2.99088
2.96977
2.94807
2.92591
2.90338
2.88061
2.85771
2.83478
2.81193
2.78926
2.76688
2.74488
2.72336
2.70239
2.68207
2.66245
2.64359
2.62556
2.60837
2.59207
2.57666
2.56213
2.54846
2.53561
2.52355
2.51218
2.50141
2.49108
2.48105
2.47118
2.46135
2.45152
2.44171
2.43215
2.42165
2.40702
0.0283441
0.0576209
0.0735079
0.0847304
0.0939125
0.102041
0.109621
0.116956
0.124249
0.131638
0.13922
0.147057
0.15519
0.163646
0.172442
0.181592
0.191111
0.201015
0.211321
0.222047
0.233211
0.244831
0.256919
0.269489
0.282548
0.296105
0.310164
0.324728
0.339799
0.355379
0.371467
0.388065
0.405172
0.422787
0.44091
0.459543
0.478685
0.498338
0.518504
0.539186
0.560389
0.582116
0.604375
0.62717
0.650509
0.674399
0.698847
0.723861
0.749447
0.775614
0.802367
0.829713
0.85766
0.886212
0.915376
0.945156
0.975557
1.00658
1.03823
1.07051
1.10342
1.13696
1.17113
1.20592
1.24134
1.27738
1.31403
1.35129
1.38914
1.42759
1.4666
1.50618
1.54631
1.58696
1.62813
1.66978
1.71191
1.75448
1.79746
1.84084
1.88458
1.92866
1.97303
2.01766
2.06253
2.10759
2.1528
2.19812
2.24352
2.28894
2.33435
2.3797
2.42495
2.47003
2.51491
2.55954
2.60385
2.64779
2.69131
2.73435
2.77686
2.81877
2.86002
2.90055
2.94029
2.97919
3.01717
3.05418
3.09014
3.12499
3.15866
3.19108
3.22219
3.25192
3.28021
3.30699
3.33221
3.3558
3.37771
3.39788
3.41628
3.43285
3.44756
3.46037
3.47127
3.48021
3.48721
3.49223
3.4951
3.49606
3.49511
3.49221
3.48738
3.48065
3.47207
3.46169
3.44958
3.43582
3.42047
3.40364
3.38541
3.36588
3.34517
3.32339
3.30063
3.27704
3.25271
3.22777
3.20235
3.17656
3.15052
3.12435
3.09816
3.07208
3.0462
3.02064
2.99549
2.97084
2.94678
2.92339
2.90073
2.87885
2.85782
2.83765
2.81837
2.79997
2.78244
2.76576
2.74986
2.73469
2.72016
2.70614
2.69252
2.6792
2.6661
2.65324
2.64069
2.62873
2.61633
2.60112
0.0322482
0.0654948
0.0832977
0.0958153
0.106007
0.114973
0.123271
0.131238
0.139096
0.147004
0.155072
0.163383
0.17199
0.180932
0.190238
0.199927
0.210019
0.220528
0.231472
0.242865
0.254723
0.26706
0.279887
0.293215
0.307051
0.321403
0.336275
0.351672
0.367596
0.384049
0.401034
0.418553
0.436606
0.455196
0.474324
0.493994
0.514208
0.534969
0.556283
0.578155
0.60059
0.623595
0.647178
0.671347
0.69611
0.721475
0.747452
0.77405
0.801277
0.829143
0.857656
0.886825
0.916658
0.947163
0.978347
1.01022
1.04278
1.07604
1.11
1.14466
1.18004
1.21612
1.25291
1.29042
1.32862
1.36754
1.40714
1.44744
1.48842
1.53007
1.57238
1.61534
1.65892
1.70311
1.74789
1.79323
1.83912
1.88552
1.93241
1.97976
2.02753
2.07568
2.12419
2.17301
2.22211
2.27143
2.32094
2.3706
2.42035
2.47015
2.51994
2.56968
2.61931
2.66878
2.71803
2.767
2.81563
2.86386
2.91163
2.95888
3.00554
3.05155
3.09685
3.14137
3.18503
3.22777
3.26953
3.31022
3.34978
3.38814
3.42523
3.46097
3.49529
3.52813
3.55941
3.58906
3.61703
3.64324
3.66763
3.69015
3.71074
3.72935
3.74594
3.76048
3.77292
3.78324
3.79143
3.79748
3.80125
3.80281
3.80231
3.79966
3.79487
3.78798
3.77903
3.76808
3.75519
3.74044
3.7239
3.70568
3.68586
3.66454
3.64185
3.61789
3.59279
3.56666
3.53964
3.51185
3.48341
3.45446
3.42512
3.39552
3.36579
3.33604
3.30638
3.27694
3.24782
3.21912
3.19093
3.16333
3.13642
3.11024
3.08486
3.06033
3.03666
3.01388
2.99199
2.97096
2.95077
2.93136
2.91267
2.89462
2.87712
2.8601
2.84354
2.82749
2.81206
2.79751
2.78291
2.76638
0.037003
0.0724281
0.0917688
0.105377
0.116444
0.126153
0.135096
0.143632
0.151997
0.160364
0.168856
0.177566
0.186562
0.195893
0.205597
0.215699
0.226223
0.237186
0.248604
0.260491
0.27286
0.285724
0.299093
0.312976
0.32738
0.342313
0.35778
0.373786
0.390336
0.407432
0.42508
0.443283
0.462044
0.481368
0.501259
0.521722
0.542763
0.564388
0.586603
0.609416
0.632836
0.656872
0.681532
0.706827
0.732768
0.759365
0.786629
0.814572
0.843205
0.872539
0.902585
0.933354
0.964856
0.997101
1.0301
1.06386
1.09839
1.1337
1.16979
1.20667
1.24435
1.28282
1.32209
1.36216
1.40303
1.4447
1.48715
1.53039
1.5744
1.61918
1.66471
1.71097
1.75795
1.80562
1.85397
1.90297
1.95259
2.00281
2.05358
2.10488
2.15666
2.2089
2.26154
2.31455
2.36787
2.42147
2.47529
2.52927
2.58338
2.63754
2.69172
2.74584
2.79984
2.85367
2.90727
2.96055
3.01347
3.06595
3.11793
3.16934
3.22011
3.27017
3.31945
3.36788
3.4154
3.46191
3.50736
3.55167
3.59476
3.63655
3.67698
3.71597
3.75344
3.78931
3.82352
3.85599
3.88666
3.91544
3.94229
3.96712
3.98989
4.01054
4.02903
4.04529
4.05931
4.07104
4.08047
4.08757
4.09229
4.09456
4.09457
4.09225
4.08758
4.08059
4.07134
4.05988
4.04628
4.03059
4.01292
3.99334
3.97196
3.94888
3.92422
3.89808
3.8706
3.8419
3.81212
3.78138
3.74983
3.71759
3.6848
3.65159
3.6181
3.58444
3.55075
3.51714
3.48374
3.45064
3.41796
3.38578
3.3542
3.3233
3.29315
3.2638
3.2353
3.20769
3.18099
3.15519
3.1303
3.10629
3.08312
3.06075
3.03913
3.01823
2.99805
2.97869
2.96025
2.94297
2.92596
2.90771
0.0413863
0.078195
0.0987926
0.113318
0.125135
0.135493
0.145009
0.154056
0.16288
0.171661
0.18053
0.189589
0.198915
0.208564
0.218582
0.229
0.239845
0.251137
0.262894
0.275129
0.287855
0.301084
0.314825
0.329089
0.343882
0.359213
0.375088
0.391513
0.408494
0.426037
0.444149
0.462835
0.482102
0.501956
0.522405
0.543456
0.565117
0.587397
0.610306
0.633853
0.65805
0.682908
0.708439
0.734656
0.761572
0.789201
0.817556
0.846651
0.876499
0.907116
0.938515
0.970708
1.00371
1.03753
1.07219
1.10769
1.14404
1.18127
1.21936
1.25834
1.29821
1.33897
1.38062
1.42318
1.46663
1.51098
1.55622
1.60234
1.64934
1.69721
1.74592
1.79546
1.84582
1.89697
1.94888
2.00153
2.05489
2.10892
2.16358
2.21884
2.27466
2.33098
2.38777
2.44498
2.50254
2.56042
2.61854
2.67686
2.73531
2.79383
2.85237
2.91084
2.96919
3.02734
3.08523
3.14278
3.19993
3.25659
3.3127
3.36818
3.42297
3.47698
3.53014
3.58238
3.63363
3.68379
3.73281
3.78059
3.82707
3.87217
3.9158
3.95789
3.99837
4.03715
4.07416
4.10933
4.14257
4.17382
4.20302
4.23008
4.25495
4.27757
4.29788
4.31584
4.3314
4.34453
4.35518
4.36334
4.36899
4.37203
4.3726
4.37064
4.36613
4.35911
4.3496
4.33769
4.32341
4.30686
4.28809
4.26721
4.24431
4.21949
4.19287
4.16457
4.13471
4.10342
4.07084
4.03711
4.00236
3.96673
3.93037
3.89341
3.856
3.81825
3.78031
3.74231
3.70437
3.6666
3.62913
3.59205
3.55549
3.51951
3.48423
3.44971
3.41601
3.38321
3.35134
3.32044
3.29052
3.26161
3.2337
3.20679
3.18086
3.15592
3.13201
3.10923
3.0877
3.06761
3.04809
3.02789
0.0452531
0.0827842
0.104372
0.119647
0.132091
0.143002
0.153016
0.162513
0.171747
0.180898
0.190103
0.199468
0.209074
0.218984
0.229248
0.239902
0.250978
0.262497
0.274478
0.286938
0.29989
0.313346
0.327315
0.34181
0.356839
0.37241
0.388531
0.405211
0.422458
0.440281
0.458687
0.477685
0.497285
0.517496
0.538328
0.559792
0.581899
0.60466
0.628087
0.652194
0.676995
0.702504
0.728736
0.755708
0.783435
0.811934
0.841223
0.871317
0.902234
0.933992
0.966606
1.00009
1.03447
1.06975
1.10596
1.14309
1.18118
1.22023
1.26025
1.30125
1.34324
1.38623
1.43022
1.47522
1.52122
1.56823
1.61623
1.66523
1.71521
1.76615
1.81805
1.87089
1.92463
1.97927
2.03476
2.09107
2.14818
2.20604
2.26461
2.32385
2.38371
2.44413
2.50507
2.56647
2.62827
2.6904
2.75281
2.81543
2.87819
2.94102
3.00386
3.06662
3.12923
3.19162
3.25371
3.31542
3.37667
3.43738
3.49748
3.55689
3.61553
3.67332
3.73019
3.78605
3.84082
3.89443
3.9468
3.99785
4.0475
4.09567
4.14228
4.18726
4.23051
4.27198
4.31157
4.34922
4.38484
4.41837
4.44973
4.47885
4.50566
4.5301
4.55212
4.57166
4.58866
4.6031
4.61492
4.6241
4.63062
4.63442
4.63555
4.63399
4.62968
4.62263
4.61291
4.60058
4.58569
4.5683
4.5485
4.52637
4.502
4.47549
4.44696
4.41653
4.38431
4.35045
4.31508
4.27834
4.24037
4.20131
4.16132
4.12053
4.07909
4.03715
3.99483
3.95227
3.90962
3.86699
3.82453
3.78233
3.74054
3.69925
3.65857
3.61861
3.57945
3.54118
3.50388
3.46761
3.43244
3.39841
3.36556
3.33394
3.30356
3.27447
3.24674
3.22048
3.19581
3.17287
3.15083
3.12871
0.0485666
0.0862572
0.108583
0.124448
0.137395
0.14876
0.159191
0.169073
0.178659
0.188131
0.197626
0.207252
0.217091
0.22721
0.23766
0.248483
0.259711
0.27137
0.283482
0.296063
0.30913
0.322695
0.33677
0.351369
0.366502
0.382179
0.39841
0.415207
0.432579
0.450539
0.469097
0.488264
0.508054
0.528478
0.54955
0.571284
0.593693
0.616792
0.640598
0.665125
0.690393
0.716418
0.743221
0.77082
0.799235
0.828487
0.858595
0.889582
0.921466
0.95427
0.988012
1.02271
1.05839
1.09507
1.13276
1.17148
1.21126
1.25209
1.29401
1.33702
1.38112
1.42633
1.47266
1.52011
1.56867
1.61835
1.66914
1.72104
1.77402
1.82808
1.8832
1.93936
1.99653
2.05468
2.11377
2.17378
2.23466
2.29637
2.35886
2.42207
2.48597
2.55047
2.61554
2.6811
2.74708
2.81342
2.88004
2.94688
3.01385
3.08088
3.1479
3.21481
3.28153
3.34799
3.4141
3.47977
3.54492
3.60947
3.67333
3.73642
3.79865
3.85995
3.92024
3.97943
4.03744
4.09419
4.1496
4.20359
4.25608
4.307
4.35626
4.40378
4.4495
4.49332
4.53518
4.575
4.6127
4.64821
4.68146
4.71237
4.74089
4.76693
4.79044
4.81137
4.82966
4.84526
4.85813
4.86824
4.87555
4.88005
4.88171
4.88055
4.87644
4.86937
4.85945
4.84673
4.83127
4.81312
4.79235
4.76903
4.74327
4.71515
4.68478
4.65228
4.61778
4.5814
4.54329
4.50358
4.46242
4.41996
4.37634
4.33172
4.28625
4.24006
4.19331
4.14614
4.0987
4.05112
4.00355
3.95612
3.90896
3.86221
3.81599
3.77042
3.72563
3.68173
3.63882
3.59703
3.55644
3.51714
3.47924
3.44279
3.40788
3.37458
3.34298
3.31321
3.28537
3.25959
3.23506
3.21107
0.0513207
0.088702
0.111538
0.127841
0.141171
0.152888
0.163652
0.173843
0.183717
0.193452
0.203185
0.213021
0.223043
0.233318
0.243899
0.254829
0.266142
0.277868
0.290029
0.302646
0.315736
0.329314
0.343395
0.357994
0.373123
0.388795
0.405024
0.421824
0.439208
0.457191
0.475786
0.495009
0.514876
0.535402
0.556603
0.578497
0.601102
0.624436
0.648518
0.673368
0.699008
0.725461
0.75275
0.780898
0.80993
0.839869
0.87074
0.902568
0.935377
0.969192
1.00404
1.03993
1.0769
1.11497
1.15416
1.19449
1.23597
1.27863
1.32248
1.36753
1.4138
1.4613
1.51002
1.55998
1.61118
1.6636
1.71725
1.77211
1.82818
1.88542
1.94382
2.00336
2.06399
2.1257
2.18844
2.25216
2.31682
2.38238
2.44876
2.51593
2.58381
2.65234
2.72146
2.79108
2.86113
2.93155
3.00224
3.07313
3.14413
3.21516
3.28612
3.35694
3.42752
3.49778
3.56761
3.63694
3.70567
3.77371
3.84098
3.90738
3.97283
4.03725
4.10056
4.16266
4.22348
4.28294
4.34095
4.39744
4.45234
4.50555
4.55701
4.60665
4.65437
4.70012
4.74382
4.7854
4.82477
4.86188
4.89664
4.929
4.95887
4.9862
5.01092
5.03298
5.05231
5.06887
5.08261
5.0935
5.1015
5.10658
5.10873
5.10792
5.10401
5.09691
5.0868
5.07374
5.05775
5.03889
5.01723
4.99282
4.96575
4.93612
4.90403
4.86958
4.8329
4.79412
4.75337
4.7108
4.66655
4.62077
4.57362
4.52524
4.47578
4.42541
4.37427
4.32252
4.27031
4.21779
4.16511
4.11242
4.05988
4.00762
3.95581
3.90458
3.8541
3.8045
3.75592
3.70853
3.66245
3.61784
3.57481
3.5335
3.49402
3.45648
3.42101
3.38773
3.35674
3.32818
3.30124
3.2755
0.0535284
0.0902223
0.113358
0.129959
0.143558
0.155529
0.166534
0.176956
0.187045
0.196978
0.206888
0.216877
0.227028
0.237404
0.248062
0.259043
0.270384
0.282116
0.294263
0.306847
0.319886
0.333398
0.347402
0.361915
0.376954
0.392535
0.408677
0.425395
0.442708
0.460632
0.479186
0.498389
0.518261
0.53882
0.560087
0.582082
0.604827
0.628342
0.652649
0.677776
0.703751
0.730601
0.758355
0.787041
0.816686
0.847321
0.878973
0.911671
0.945443
0.980317
1.01632
1.05348
1.09183
1.13138
1.17216
1.2142
1.2575
1.30211
1.34802
1.39525
1.44382
1.49374
1.545
1.59761
1.65157
1.70688
1.76351
1.82146
1.88071
1.94123
2.003
2.06599
2.13015
2.19545
2.26185
2.32929
2.39771
2.46707
2.53729
2.60832
2.68007
2.75249
2.82549
2.89898
2.9729
3.04715
3.12164
3.19629
3.271
3.34569
3.42025
3.4946
3.56863
3.64225
3.71538
3.7879
3.85973
3.93077
4.00093
4.07013
4.13827
4.20526
4.27103
4.33549
4.39855
4.46015
4.52019
4.5786
4.63531
4.69025
4.74334
4.79451
4.84369
4.89081
4.93581
4.97861
5.01915
5.05736
5.09318
5.12653
5.15735
5.18557
5.21114
5.23399
5.25407
5.27133
5.28572
5.29719
5.30571
5.31124
5.31379
5.31327
5.30955
5.3024
5.29212
5.27874
5.26228
5.24279
5.22032
5.19493
5.16669
5.13569
5.10201
5.06577
5.02708
4.98606
4.94285
4.89758
4.85041
4.80148
4.75095
4.69896
4.64568
4.59127
4.53588
4.47967
4.42281
4.36545
4.30776
4.24991
4.19206
4.13437
4.07703
4.0202
3.96406
3.9088
3.85459
3.80162
3.75008
3.70016
3.65204
3.60589
3.56186
3.52012
3.48081
3.44407
3.41
3.37873
3.34951
3.32219
0.0552111
0.0909098
0.114168
0.130941
0.144702
0.156822
0.167976
0.178544
0.188773
0.198833
0.208855
0.218938
0.229161
0.239586
0.250267
0.261246
0.272562
0.284246
0.296326
0.308828
0.321763
0.335152
0.34902
0.363389
0.378283
0.393721
0.409724
0.426315
0.443514
0.461344
0.479827
0.498988
0.518849
0.539433
0.560763
0.582865
0.605763
0.629478
0.654029
0.679461
0.705813
0.733118
0.761407
0.790716
0.821077
0.852522
0.885083
0.918794
0.953686
0.989791
1.02714
1.06576
1.10569
1.14694
1.18954
1.23352
1.2789
1.32569
1.37391
1.42358
1.47469
1.52727
1.58131
1.6368
1.69374
1.75212
1.81193
1.87313
1.93571
1.99963
2.06486
2.13137
2.1991
2.268
2.33803
2.40912
2.48121
2.55424
2.62814
2.70282
2.77821
2.85424
2.93081
3.00784
3.08524
3.16291
3.24076
3.3187
3.39663
3.47444
3.55205
3.62934
3.70623
3.7826
3.85837
3.93343
4.00768
4.08104
4.1534
4.22468
4.29479
4.36363
4.43114
4.49721
4.56179
4.62478
4.68611
4.74572
4.80352
4.85946
4.91347
4.96548
5.01543
5.06326
5.1089
5.15231
5.1934
5.23214
5.26844
5.30226
5.33353
5.36219
5.38818
5.41144
5.43191
5.44956
5.46431
5.47613
5.48497
5.49082
5.49366
5.49335
5.4898
5.48258
5.47215
5.4585
5.44165
5.42162
5.39847
5.37224
5.34299
5.31079
5.27573
5.2379
5.19741
5.15437
5.10893
5.0612
5.01135
4.95951
4.90583
4.85048
4.79362
4.7354
4.67598
4.61554
4.55424
4.49225
4.42976
4.36693
4.30396
4.24102
4.17832
4.11605
4.05441
3.99362
3.93391
3.87549
3.81861
3.7635
3.71038
3.65948
3.61101
3.56515
3.52201
3.48182
3.4447
3.41079
3.3794
3.35072
0.0563772
0.0908291
0.114046
0.130865
0.144682
0.156863
0.168091
0.17873
0.189027
0.199147
0.209217
0.219332
0.229566
0.239983
0.250634
0.261561
0.272803
0.284396
0.296371
0.308763
0.321572
0.334829
0.348561
0.362794
0.377553
0.392863
0.408749
0.425237
0.442353
0.460123
0.478574
0.497734
0.517632
0.538297
0.559756
0.58204
0.60518
0.629212
0.65414
0.680037
0.706941
0.734894
0.763935
0.794105
0.825443
0.857982
0.891757
0.926802
0.963154
1.00085
1.03991
1.08039
1.1223
1.16566
1.2105
1.25685
1.30471
1.35411
1.40505
1.45755
1.5116
1.56721
1.62437
1.68307
1.74328
1.805
1.8682
1.93284
1.99889
2.06631
2.13506
2.20509
2.27633
2.34874
2.42226
2.4968
2.57231
2.64872
2.72593
2.80387
2.88245
2.96159
3.0412
3.12117
3.20143
3.28186
3.36238
3.44288
3.52325
3.6034
3.68323
3.76263
3.84151
3.91975
3.99727
4.07395
4.14972
4.22446
4.29809
4.37052
4.44165
4.51141
4.57971
4.64649
4.71165
4.77513
4.83685
4.89676
4.95478
5.01086
5.06495
5.11698
5.1669
5.21466
5.2602
5.30348
5.34444
5.38303
5.4192
5.4529
5.48406
5.51263
5.53856
5.5618
5.58229
5.59997
5.61479
5.6267
5.63566
5.64165
5.64468
5.64452
5.64112
5.63384
5.62329
5.60944
5.59229
5.57186
5.54819
5.5213
5.49124
5.45808
5.42187
5.38272
5.34071
5.29595
5.24856
5.19869
5.14646
5.09203
5.03553
4.97714
4.91701
4.8553
4.79218
4.72781
4.66239
4.59608
4.52908
4.46158
4.39378
4.32587
4.25808
4.19062
4.12374
4.05767
3.99268
3.92904
3.86697
3.80673
3.74866
3.69304
3.64014
3.5902
3.54344
3.50012
3.46028
3.42405
3.39078
3.36105
0.0572134
0.0903262
0.113342
0.130108
0.143895
0.156059
0.167262
0.177879
0.188154
0.198252
0.208297
0.218379
0.228573
0.238937
0.249522
0.26037
0.271519
0.283003
0.29485
0.307084
0.319729
0.332819
0.346388
0.360468
0.37509
0.390285
0.406085
0.422524
0.439633
0.457447
0.476001
0.495337
0.515495
0.536499
0.558375
0.581163
0.604897
0.629602
0.655299
0.682081
0.710003
0.73911
0.769446
0.801049
0.833955
0.868206
0.903837
0.940887
0.97939
1.01938
1.06092
1.104
1.14866
1.19491
1.24276
1.29223
1.34333
1.39606
1.45042
1.50641
1.56401
1.62323
1.68403
1.74639
1.81028
1.87567
1.94253
2.0108
2.08044
2.1514
2.22362
2.29705
2.37162
2.44726
2.52391
2.60149
2.67992
2.75913
2.83902
2.91952
3.00054
3.08197
3.16374
3.24574
3.32789
3.41007
3.4922
3.57417
3.65587
3.73722
3.8181
3.89842
3.97808
4.05698
4.13502
4.2121
4.28814
4.36304
4.43672
4.50907
4.58003
4.6495
4.71742
4.78372
4.84832
4.91116
4.97217
5.0313
5.08847
5.14367
5.19683
5.24791
5.29686
5.34364
5.38822
5.43054
5.47057
5.50827
5.54359
5.5765
5.60693
5.63483
5.66018
5.68291
5.70297
5.72032
5.73488
5.7466
5.75544
5.76139
5.7645
5.76442
5.76114
5.75384
5.74321
5.72923
5.7119
5.69121
5.66719
5.63984
5.60921
5.57533
5.53825
5.49806
5.45482
5.40865
5.35965
5.30796
5.25369
5.19701
5.13805
5.07696
5.01392
4.94907
4.88259
4.81466
4.74546
4.67518
4.60401
4.53217
4.45986
4.3873
4.31468
4.24224
4.17029
4.09911
4.02899
3.96027
3.8933
3.82847
3.766
3.70621
3.64941
3.59589
3.54593
3.49963
3.45718
3.41877
3.38379
3.35328
0.0576532
0.0892262
0.111847
0.128432
0.142089
0.154142
0.165244
0.175771
0.185961
0.195979
0.205945
0.215945
0.226051
0.236321
0.246803
0.257542
0.268576
0.279942
0.291674
0.303809
0.316388
0.329444
0.343013
0.357132
0.371838
0.38717
0.403172
0.419895
0.437368
0.455626
0.474716
0.494683
0.515562
0.537326
0.560069
0.583857
0.608748
0.63481
0.662097
0.690659
0.720549
0.751816
0.784502
0.818648
0.85429
0.891462
0.930196
0.970521
1.01246
1.05604