/*--------------------------------*- C++ -*----------------------------------*\
| =========                 |                                                 |
| \\      /  F ield         | OpenFOAM: The Open Source CFD Toolbox           |
|  \\    /   O peration     | Version:  2406                                  |
|   \\  /    A nd           | Website:  www.openfoam.com                      |
|    \\/     M anipulation  |                                                 |
\*---------------------------------------------------------------------------*/
FoamFile
{
    version     2.0;
    format      ascii;
    arch        "LSB;label=32;scalar=64";
    class       volScalarField;
    location    "200";
    object      nut;
}
// * * * * * * * * * * * * * * * * * * * * * * * * * * * * * * * * * * * * * //

dimensions      [0 2 -1 0 0 0 0];

internalField   nonuniform List<scalar> 
12225
(
2.70744e-05
3.55746e-05
4.0523e-05
4.31923e-05
4.44515e-05
4.49642e-05
4.49108e-05
4.48716e-05
4.45032e-05
4.41848e-05
4.38515e-05
4.35233e-05
4.32275e-05
4.29455e-05
4.27123e-05
4.24747e-05
4.23161e-05
4.20882e-05
0.000212993
8.46414e-05
5.59083e-05
4.40572e-05
3.83762e-05
3.53556e-05
3.38465e-05
3.30821e-05
3.28585e-05
3.28687e-05
3.32209e-05
3.3596e-05
3.42371e-05
3.47887e-05
3.55951e-05
3.62151e-05
3.71411e-05
3.76473e-05
0.000656975
0.000306545
0.000194002
0.000142115
0.00011322
9.45004e-05
8.20234e-05
7.33165e-05
6.68024e-05
6.19621e-05
5.80441e-05
5.51122e-05
5.25355e-05
5.07143e-05
4.88954e-05
4.7862e-05
4.6328e-05
4.53945e-05
0.000862999
0.000609449
0.000451595
0.00035088
0.000289281
0.000246513
0.000216675
0.000194305
0.000177762
0.000164296
0.000154048
0.00014507
0.000138203
0.00013173
0.000126898
0.000121885
0.000118155
0.000113797
0.000877433
0.000776402
0.00069083
0.000591968
0.000517302
0.00045811
0.000413472
0.000377239
0.000349672
0.000325972
0.000307904
0.000291308
0.000278928
0.000266599
0.000257908
0.000248181
0.000242309
0.000233332
0.000858412
0.00083529
0.000807272
0.000753114
0.000699375
0.000648256
0.000604831
0.00056587
0.000534208
0.000505366
0.000482499
0.00046073
0.000444091
0.00042709
0.000414985
0.00040111
0.000392703
0.00037996
0.000854258
0.000849542
0.00084071
0.000823039
0.000798597
0.000768468
0.00073918
0.000709554
0.000683359
0.000657727
0.000636211
0.000614803
0.000597713
0.000579794
0.000566551
0.000551198
0.0005415
0.000526813
0.000852389
0.000851592
0.000849792
0.000844527
0.000835946
0.00082452
0.000810177
0.000793465
0.000777244
0.000760015
0.000744562
0.000728293
0.000714572
0.000699769
0.000688189
0.000674737
0.000665638
0.00065215
0.000851903
0.00085148
0.000851079
0.000849881
0.000847545
0.000843617
0.000838592
0.000831272
0.000823647
0.000814991
0.000806299
0.000796553
0.000787798
0.00077807
0.000769856
0.000760478
0.000753287
0.000743485
0.000851815
0.000851374
0.000851074
0.000850609
0.000850035
0.000848809
0.000847331
0.000844858
0.000841998
0.000838305
0.000834503
0.000829863
0.000825424
0.000820273
0.000815572
0.000810271
0.000805605
0.000799748
0.000851799
0.000851357
0.000851021
0.000850624
0.000850325
0.000849824
0.000849338
0.000848518
0.000847605
0.000846261
0.000844873
0.000843009
0.000841201
0.000838883
0.000836819
0.000834104
0.000832045
0.000828846
0.000851792
0.000851359
0.000851001
0.000850611
0.000850306
0.000849938
0.000849631
0.00084921
0.000848815
0.000848234
0.000847676
0.000846876
0.000846139
0.000845093
0.000844214
0.000842916
0.000841977
0.000840426
0.000851787
0.000851362
0.000850989
0.000850608
0.00085028
0.000849936
0.000849645
0.000849319
0.000849041
0.000848698
0.000848399
0.000848002
0.000847659
0.00084718
0.000846787
0.000846212
0.000845772
0.000845101
0.000851783
0.000851364
0.00085098
0.000850605
0.000850263
0.000849926
0.000849622
0.000849316
0.000849043
0.000848759
0.000848507
0.000848233
0.000847991
0.000847715
0.000847473
0.000847186
0.000846937
0.000846636
0.000851781
0.000851364
0.000850974
0.0008506
0.000850251
0.000849916
0.000849603
0.0008493
0.000849018
0.000848744
0.000848489
0.000848238
0.000848005
0.000847773
0.000847557
0.000847341
0.000847137
0.000846933
0.00085178
0.000851363
0.00085097
0.000850596
0.000850243
0.000849907
0.000849589
0.000849286
0.000848999
0.000848724
0.000848464
0.000848214
0.000847977
0.000847749
0.000847532
0.000847323
0.000847124
0.000846932
0.000851779
0.000851362
0.000850967
0.000850592
0.000850236
0.000849899
0.000849579
0.000849274
0.000848984
0.000848707
0.000848444
0.000848192
0.000847952
0.000847722
0.000847503
0.000847292
0.000847091
0.000846898
0.000851779
0.000851362
0.000850966
0.00085059
0.000850233
0.000849894
0.000849572
0.000849266
0.000848974
0.000848696
0.00084843
0.000848177
0.000847935
0.000847703
0.000847482
0.00084727
0.000847066
0.000846872
0.000851779
0.000851362
0.000850965
0.000850589
0.000850232
0.000849892
0.00084957
0.000849263
0.00084897
0.000848691
0.000848425
0.00084817
0.000847927
0.000847694
0.000847472
0.000847258
0.000847054
0.000846859
0.000851779
0.000851363
0.000850966
0.000850591
0.000850234
0.000849895
0.000849573
0.000849266
0.000848974
0.000848695
0.000848428
0.000848174
0.00084793
0.000847697
0.000847473
0.000847259
0.000847052
0.000846855
0.000851779
0.000851364
0.000850968
0.000850595
0.000850238
0.000849902
0.000849579
0.000849274
0.000848979
0.0008487
0.000848427
0.000848168
0.000847911
0.000847667
0.00084742
0.000847188
0.000846947
0.000846723
0.000851778
0.000851368
0.000850969
0.000850603
0.000850243
0.000849911
0.000849573
0.000849254
0.000848916
0.000848587
0.000848223
0.000847865
0.000847456
0.00084706
0.000846596
0.00084616
0.000845637
0.00084517
0.000851779
0.000851382
0.000850972
0.000850624
0.000850209
0.00084979
0.000849234
0.000848616
0.000847803
0.000846896
0.000845769
0.00084456
0.000843125
0.000841662
0.00083996
0.000838329
0.000836385
0.000834697
0.000851855
0.000851468
0.000850931
0.000850395
0.000849127
0.000847458
0.000844947
0.00084194
0.000838072
0.000833847
0.00082896
0.000823927
0.000818452
0.000812999
0.00080732
0.000801605
0.000795916
0.000790791
0.000852785
0.000851382
0.000849188
0.000845095
0.000836885
0.000827817
0.000815748
0.000802822
0.000788373
0.000774367
0.00075966
0.000746074
0.000732114
0.000719677
0.000706813
0.000695831
0.000684078
0.000674683
0.000858211
0.000842301
0.000828961
0.000803013
0.000769258
0.000735474
0.000700802
0.000669703
0.000639496
0.00061359
0.000588609
0.000567739
0.000547309
0.00053065
0.000513856
0.000500598
0.000486553
0.000476051
0.000864338
0.000785615
0.000712709
0.000628298
0.000558283
0.000503081
0.000455745
0.000418865
0.000386621
0.000361589
0.000338759
0.000321222
0.000304408
0.000291764
0.000278903
0.000269538
0.000259358
0.000252291
0.000775956
0.000540064
0.00039794
0.000312963
0.000258156
0.000219633
0.000190504
0.000169563
0.00015255
0.00013999
0.000129093
0.000121014
0.000113524
0.000108072
0.00010263
9.88069e-05
9.46827e-05
9.19095e-05
0.000323582
0.000164841
0.000111417
8.60759e-05
7.08264e-05
6.13545e-05
5.50183e-05
5.08855e-05
4.79531e-05
4.60097e-05
4.45905e-05
4.36882e-05
4.30395e-05
4.26951e-05
4.24556e-05
4.24397e-05
4.24365e-05
4.26233e-05
3.26574e-05
3.90519e-05
4.3892e-05
4.69716e-05
4.93654e-05
5.11698e-05
5.25343e-05
5.34594e-05
5.4114e-05
5.44633e-05
5.46905e-05
5.46972e-05
5.4654e-05
5.45497e-05
5.43768e-05
5.41694e-05
5.39443e-05
5.37076e-05
3.85502e-06
1.05374e-05
1.25136e-05
1.40077e-05
1.51119e-05
1.59279e-05
1.65641e-05
1.71261e-05
1.76196e-05
1.80731e-05
1.8513e-05
1.89611e-05
1.94408e-05
1.9994e-05
2.06524e-05
2.13809e-05
2.21451e-05
2.29342e-05
2.37471e-05
2.45869e-05
2.54556e-05
2.63551e-05
2.72845e-05
2.82433e-05
2.92287e-05
3.02398e-05
3.12747e-05
3.23287e-05
3.33915e-05
3.44612e-05
3.55338e-05
3.66088e-05
3.76836e-05
3.8758e-05
3.98299e-05
4.08996e-05
4.19657e-05
4.30305e-05
4.40957e-05
4.5166e-05
4.62461e-05
4.73445e-05
4.84597e-05
4.95662e-05
5.06724e-05
5.17769e-05
5.28798e-05
5.39821e-05
5.50831e-05
5.6184e-05
5.72839e-05
5.83838e-05
5.94829e-05
6.05822e-05
6.16807e-05
6.27794e-05
6.3877e-05
6.49746e-05
6.6071e-05
6.7167e-05
6.82612e-05
6.93546e-05
7.04458e-05
7.15356e-05
7.26224e-05
7.3707e-05
7.4788e-05
7.58659e-05
7.69392e-05
7.80086e-05
7.90725e-05
8.01315e-05
8.11839e-05
8.22303e-05
8.3269e-05
8.43006e-05
8.53233e-05
8.63377e-05
8.73421e-05
8.83371e-05
8.93208e-05
9.02938e-05
9.12543e-05
9.22028e-05
9.31374e-05
9.40586e-05
9.49645e-05
9.58555e-05
9.67298e-05
9.75872e-05
9.84263e-05
9.92459e-05
0.000100045
0.000100821
0.000101574
0.000102302
0.000103004
0.00010368
0.000104334
0.000104972
0.000105584
0.000106173
0.000106737
0.000107277
0.00010779
0.000108278
0.000108739
0.000109172
0.000109576
0.000109952
0.000110299
0.000110615
0.000110901
0.000111155
0.000111377
0.000111568
0.000111725
0.000111849
0.000111939
0.000111995
0.000112017
0.000112005
0.000111958
0.000111877
0.000111762
0.000111612
0.000111422
0.000111191
0.000110934
0.000110656
0.00011033
0.000109974
0.000109584
0.000109162
0.000108708
0.000108224
0.00010771
0.000107167
0.000106596
0.000105997
0.000105375
0.000104732
0.000104068
0.000103386
0.000102688
0.000101977
0.000101253
0.00010052
9.97789e-05
9.9033e-05
9.82833e-05
9.75322e-05
9.6782e-05
9.60354e-05
9.52946e-05
9.45623e-05
9.38404e-05
9.31316e-05
9.24375e-05
9.17609e-05
9.11033e-05
9.04663e-05
8.98525e-05
8.92646e-05
8.87025e-05
8.81708e-05
8.77018e-05
8.76557e-05
8.75949e-05
8.73562e-05
8.71631e-05
8.69983e-05
8.68662e-05
8.67615e-05
8.66863e-05
8.66641e-05
8.66071e-05
8.6484e-05
8.62617e-05
8.4976e-05
6.07474e-06
2.92552e-05
6.24938e-05
8.82771e-05
0.000105578
0.000116566
0.000123095
0.000126814
0.000129447
0.000131833
0.000134276
0.000136791
0.000139263
0.000141548
0.000143626
0.000145608
0.000147586
0.000149624
0.000151782
0.000154113
0.00015667
0.000159496
0.000162624
0.000166072
0.00016985
0.00017396
0.000178401
0.000183185
0.000188292
0.000193673
0.0001993
0.000205165
0.000211283
0.000217651
0.000224249
0.000231062
0.000238038
0.000245113
0.000252261
0.00025946
0.000266697
0.000273975
0.000281329
0.00028874
0.000296221
0.000303772
0.000311396
0.000319095
0.00032687
0.000334724
0.00034266
0.000350678
0.000358783
0.000366975
0.000375259
0.000383635
0.000392107
0.000400676
0.000409344
0.000418112
0.000426982
0.000435954
0.000445031
0.00045421
0.000463494
0.000472882
0.000482373
0.000491965
0.000501659
0.000511452
0.000521343
0.000531329
0.000541408
0.000551577
0.000561833
0.000572173
0.000582592
0.000593087
0.000603654
0.000614288
0.000624986
0.000635743
0.000646555
0.000657418
0.000668326
0.000679275
0.000690261
0.00070128
0.000712329
0.000723404
0.000734501
0.000745611
0.000756721
0.000767809
0.000778839
0.000789746
0.000800415
0.00081066
0.000820165
0.000829464
0.000838654
0.000847728
0.000856676
0.000865491
0.000874161
0.000882675
0.000891023
0.000899192
0.000907171
0.000914948
0.000922511
0.000929846
0.000936942
0.000943786
0.000950365
0.000956667
0.00096268
0.000968392
0.000973792
0.000978868
0.00098361
0.00098801
0.000992063
0.000995771
0.000999151
0.00100227
0.00100489
0.00100684
0.00100857
0.00101022
0.00101132
0.00101204
0.00101237
0.00101233
0.00101192
0.00101114
0.00101002
0.00100855
0.00100676
0.00100465
0.00100225
0.000999563
0.000996615
0.000993424
0.00099001
0.000986397
0.000982606
0.000978662
0.000974587
0.000970408
0.000966148
0.000961833
0.00095749
0.000953145
0.000948824
0.000944553
0.000940358
0.000936264
0.000932294
0.000928474
0.000924823
0.000921359
0.000918097
0.000915053
0.000912228
0.000909625
0.000907218
0.000904884
0.000900609
0.000896175
0.000891861
0.000887595
0.000883458
0.000879211
0.000874843
0.000870481
0.000865583
0.000859582
0.000851141
0.00082801
7.58225e-06
4.63634e-05
9.95212e-05
0.000143961
0.000177366
0.000201482
0.000218539
0.000230544
0.000239263
0.000246014
0.000251669
0.000256745
0.000261525
0.000266169
0.0002708
0.000275534
0.000280471
0.00028569
0.000291263
0.000297252
0.000303712
0.000310691
0.000318217
0.000326308
0.00033496
0.000344151
0.000353837
0.000364104
0.000375045
0.000386755
0.000398995
0.000411633
0.000424627
0.000437944
0.000451542
0.000465385
0.000479433
0.000493657
0.000508043
0.000522577
0.000537255
0.000552079
0.000567051
0.000582156
0.000597387
0.000612764
0.000628291
0.000643971
0.000659807
0.000675803
0.000691963
0.000708288
0.000724784
0.000741454
0.000758301
0.000775328
0.000792539
0.000809935
0.000827518
0.000845289
0.000863249
0.000881396
0.000899732
0.000918253
0.00093696
0.000955849
0.000974918
0.000994162
0.00101358
0.00103316
0.00105291
0.00107281
0.00109286
0.00111305
0.00113337
0.00115383
0.0011744
0.00119508
0.00121587
0.00123674
0.0012577
0.00127873
0.00129982
0.00132096
0.00134214
0.00136336
0.00138459
0.00140582
0.00142705
0.00144825
0.00146942
0.00149051
0.00151152
0.00153237
0.00155303
0.00157342
0.00159344
0.001613
0.00163209
0.00165092
0.00166953
0.00168789
0.00170599
0.0017238
0.00174131
0.00175848
0.0017753
0.00179175
0.0018078
0.00182343
0.00183862
0.00185333
0.00186755
0.00188124
0.0018944
0.00190698
0.00191897
0.00193034
0.00194108
0.00195115
0.00196055
0.00196925
0.00197724
0.00198451
0.00199106
0.00199704
0.00200249
0.00200637
0.00200955
0.00201252
0.00201455
0.00201576
0.0020162
0.00201587
0.00201478
0.00201296
0.00201042
0.00200719
0.00200328
0.00199873
0.00199358
0.00198784
0.00198157
0.00197481
0.00196759
0.00195995
0.00195196
0.00194364
0.00193506
0.00192626
0.00191729
0.0019082
0.00189905
0.00188988
0.00188076
0.00187172
0.00186282
0.00185411
0.00184563
0.00183743
0.00182954
0.00182199
0.00181482
0.00180805
0.00180166
0.00179566
0.00178996
0.00178423
0.00177706
0.00176971
0.00176218
0.00175472
0.00174772
0.00174008
0.00173227
0.0017246
0.00171594
0.0017048
0.00168866
0.00165051
8.60013e-06
6.26555e-05
0.00013152
0.000189017
0.000233613
0.000266928
0.000291489
0.000309612
0.000323252
0.000333965
0.000342911
0.000350904
0.000358489
0.000366018
0.000373726
0.000381769
0.000390261
0.000399285
0.000408908
0.000419185
0.000430158
0.00044186
0.000454314
0.000467531
0.000481519
0.000496285
0.000511851
0.000528105
0.000544897
0.00056206
0.00057964
0.000597658
0.000616082
0.000634874
0.000653992
0.000673395
0.00069304
0.000712901
0.000732998
0.000753329
0.000773896
0.00079471
0.000815794
0.000837195
0.000858801
0.000880616
0.000902642
0.000924884
0.000947345
0.000970029
0.000992941
0.00101608
0.00103946
0.00106308
0.00108693
0.00111103
0.00113539
0.00115999
0.00118485
0.00120996
0.00123532
0.00126093
0.00128679
0.00131289
0.00133924
0.00136582
0.00139263
0.00141966
0.00144691
0.00147437
0.00150204
0.00152989
0.00155792
0.00158613
0.00161449
0.001643
0.00167164
0.00170041
0.00172928
0.00175824
0.00178729
0.00181639
0.00184555
0.00187474
0.00190394
0.00193314
0.00196231
0.00199145
0.00202052
0.0020495
0.00207838
0.0021071
0.00213564
0.00216394
0.00219197
0.00221965
0.00224692
0.00227375
0.00230019
0.00232631
0.0023521
0.00237754
0.00240261
0.00242727
0.00245151
0.00247529
0.00249858
0.00252135
0.00254358
0.00256523
0.00258626
0.00260665
0.00262637
0.00264538
0.00266364
0.00268114
0.00269782
0.00271367
0.00272866
0.00274274
0.00275591
0.00276813
0.00277938
0.00278965
0.00279892
0.00280733
0.00281506
0.00282105
0.00282571
0.00282994
0.00283297
0.00283489
0.00283573
0.00283549
0.00283419
0.00283186
0.00282851
0.00282418
0.00281891
0.00281272
0.00280567
0.00279779
0.00278915
0.00277979
0.00276977
0.00275916
0.00274801
0.00273639
0.00272437
0.00271201
0.00269939
0.00268658
0.00267366
0.00266068
0.00264773
0.00263488
0.0026222
0.00260975
0.00259759
0.0025858
0.00257441
0.00256349
0.00255306
0.00254315
0.00253377
0.00252492
0.0025165
0.00250821
0.00249931
0.00249026
0.00248109
0.00247208
0.00246339
0.00245437
0.00244525
0.00243588
0.00242546
0.00241244
0.00239295
0.00235213
9.32347e-06
7.66421e-05
0.000159217
0.0002278
0.000281835
0.000323099
0.000354331
0.000378073
0.000396461
0.000411226
0.000423716
0.000434932
0.000445587
0.00045617
0.000467006
0.000478307
0.000490213
0.000502815
0.000516174
0.000530333
0.000545318
0.000561141
0.000577805
0.000595298
0.000613599
0.000632677
0.000652483
0.000672942
0.000693975
0.000715518
0.00073755
0.000760048
0.000782983
0.000806322
0.000830037
0.000854107
0.000878522
0.000903271
0.000928313
0.00095363
0.000979214
0.00100506
0.00103114
0.00105742
0.00108394
0.00111073
0.00113777
0.00116509
0.00119268
0.00122054
0.00124869
0.00127712
0.00130583
0.00133482
0.0013641
0.00139366
0.00142352
0.00145368
0.00148414
0.00151489
0.00154594
0.00157727
0.00160889
0.00164079
0.00167297
0.0017054
0.0017381
0.00177104
0.00180422
0.00183762
0.00187124
0.00190506
0.00193907
0.00197325
0.00200759
0.00204207
0.00207668
0.0021114
0.00214621
0.0021811
0.00221604
0.00225102
0.00228602
0.00232101
0.00235598
0.0023909
0.00242576
0.00246052
0.00249516
0.00252965
0.00256397
0.00259808
0.00263194
0.00266552
0.00269878
0.00273169
0.00276422
0.00279636
0.00282811
0.00285948
0.00289047
0.00292103
0.00295115
0.00298079
0.00300992
0.00303852
0.00306654
0.00309396
0.00312074
0.00314685
0.00317224
0.00319689
0.00322076
0.0032438
0.00326599
0.00328728
0.00330764
0.00332702
0.0033454
0.00336274
0.00337901
0.00339417
0.00340821
0.00342109
0.0034328
0.00344337
0.00345315
0.00346129
0.0034677
0.00347326
0.00347755
0.00348051
0.00348216
0.00348251
0.00348157
0.00347938
0.00347594
0.00347131
0.00346551
0.00345859
0.0034506
0.00344159
0.00343161
0.00342074
0.00340903
0.00339657
0.00338342
0.00336966
0.00335536
0.00334062
0.00332552
0.00331015
0.00329458
0.00327892
0.00326324
0.00324765
0.00323221
0.00321702
0.00320216
0.0031877
0.00317371
0.00316025
0.00314738
0.00313512
0.00312352
0.00311256
0.00310218
0.00309219
0.00308217
0.00307223
0.00306236
0.00305259
0.00304308
0.00303346
0.00302375
0.00301375
0.00300283
0.00298958
0.00297028
0.00293244
9.86479e-06
8.86395e-05
0.000182808
0.000261281
0.000323742
0.000372436
0.000410083
0.000439367
0.000462555
0.00048151
0.000497711
0.000512294
0.000526097
0.000539714
0.000553553
0.000567883
0.000582877
0.000598641
0.000615239
0.000632705
0.000651053
0.00067028
0.000690372
0.000711303
0.000733037
0.000755531
0.000778732
0.000802585
0.000827034
0.000852035
0.000877553
0.000903557
0.000930017
0.000956903
0.00098419
0.00101185
0.00103988
0.00106825
0.00109693
0.00112592
0.0011552
0.00118477
0.00121462
0.00124474
0.00127514
0.00130583
0.00133682
0.0013681
0.0013997
0.0014316
0.00146381
0.00149633
0.00152918
0.00156234
0.00159584
0.00162966
0.00166379
0.00169824
0.001733
0.00176806
0.00180342
0.00183908
0.00187502
0.00191125
0.00194775
0.0019845
0.00202152
0.00205877
0.00209625
0.00213395
0.00217185
0.00220993
0.00224819
0.00228661
0.00232516
0.00236384
0.00240262
0.00244149
0.00248042
0.00251941
0.00255842
0.00259744
0.00263645
0.00267542
0.00271434
0.00275317
0.00279191
0.00283051
0.00286896
0.00290723
0.00294529
0.00298312
0.00302067
0.00305794
0.00309487
0.00313147
0.0031677
0.00320355
0.003239
0.00327405
0.00330867
0.00334283
0.00337652
0.00340969
0.00344232
0.00347438
0.00350582
0.00353662
0.00356675
0.00359615
0.00362481
0.00365268
0.00367971
0.00370588
0.00373114
0.00375544
0.00377875
0.00380104
0.00382224
0.00384234
0.00386128
0.00387904
0.00389557
0.00391086
0.00392487
0.00393758
0.00394937
0.00395963
0.00396804
0.00397515
0.00398099
0.00398535
0.00398823
0.00398964
0.00398959
0.0039881
0.00398521
0.00398094
0.00397533
0.00396843
0.00396029
0.00395095
0.00394049
0.00392897
0.00391645
0.00390303
0.00388876
0.00387375
0.00385808
0.00384185
0.00382513
0.00380804
0.00379068
0.00377314
0.00375552
0.00373794
0.00372047
0.00370324
0.00368631
0.0036698
0.00365378
0.00363833
0.00362351
0.00360938
0.00359599
0.00358335
0.00357142
0.0035601
0.00354916
0.00353855
0.00352825
0.00351825
0.00350854
0.00349895
0.00348939
0.00347967
0.00346929
0.00345703
0.00343971
0.00340789
1.0499e-05
9.65195e-05
0.000200742
0.000288687
0.000359319
0.00041536
0.000459425
0.000494324
0.000522434
0.000545719
0.00056576
0.000583794
0.000600756
0.000617331
0.000634
0.000651089
0.000668811
0.000687296
0.00070662
0.000726819
0.000747903
0.000769865
0.000792683
0.000816325
0.000840752
0.000865921
0.000891783
0.000918292
0.000945401
0.000973072
0.00100127
0.00102996
0.00105911
0.0010887
0.0011187
0.00114909
0.00117986
0.00121097
0.00124242
0.00127419
0.00130628
0.00133867
0.00137136
0.00140436
0.00143766
0.00147127
0.0015052
0.00153944
0.00157399
0.00160887
0.00164407
0.0016796
0.00171545
0.00175162
0.00178813
0.00182495
0.00186209
0.00189955
0.00193731
0.00197538
0.00201374
0.00205239
0.00209132
0.00213053
0.00217
0.00220972
0.00224968
0.00228987
0.00233028
0.00237089
0.00241168
0.00245265
0.00249378
0.00253504
0.00257643
0.00261792
0.0026595
0.00270115
0.00274285
0.00278457
0.00282631
0.00286803
0.00290972
0.00295136
0.00299292
0.00303438
0.00307572
0.00311692
0.00315795
0.00319878
0.00323939
0.00327976
0.00331987
0.00335967
0.00339916
0.00343831
0.00347711
0.00351553
0.00355356
0.00359118
0.00362836
0.00366509
0.00370133
0.00373705
0.00377223
0.00380683
0.00384082
0.00387417
0.00390684
0.0039388
0.00397
0.00400042
0.00403001
0.00405872
0.00408653
0.00411337
0.00413922
0.00416402
0.00418774
0.00421032
0.00423173
0.00425192
0.00427085
0.00428849
0.00430479
0.00431971
0.00433361
0.00434601
0.00435663
0.00436562
0.00437329
0.00437939
0.00438387
0.00438674
0.00438802
0.00438771
0.00438587
0.0043825
0.00437764
0.00437134
0.00436364
0.00435459
0.00434426
0.00433271
0.00432001
0.00430625
0.0042915
0.00427586
0.00425942
0.00424227
0.00422452
0.00420628
0.00418764
0.00416873
0.00414965
0.00413052
0.00411145
0.00409254
0.00407391
0.00405567
0.0040379
0.0040207
0.00400417
0.00398837
0.00397336
0.00395919
0.00394586
0.00393331
0.00392143
0.00391014
0.00389941
0.00388919
0.00387945
0.00387006
0.00386094
0.0038519
0.00384257
0.00383193
0.00381739
0.00379247
1.12519e-05
0.000100664
0.000213219
0.000310098
0.000388659
0.000451967
0.000502449
0.000543013
0.000576126
0.000603832
0.00062779
0.000649314
0.000669417
0.000688856
0.00070818
0.000727772
0.000747886
0.000768687
0.00079027
0.000812685
0.000835947
0.000860052
0.000884982
0.000910706
0.000937188
0.000964387
0.00099226
0.00102076
0.00104986
0.00107951
0.00110968
0.00114034
0.00117146
0.00120302
0.00123499
0.00126736
0.0013001
0.0013332
0.00136663
0.0014004
0.00143449
0.0014689
0.00150361
0.00153863
0.00157396
0.0016096
0.00164556
0.00168183
0.00171842
0.00175532
0.00179255
0.00183009
0.00186795
0.00190612
0.00194461
0.00198341
0.00202252
0.00206193
0.00210163
0.00214162
0.00218189
0.00222244
0.00226326
0.00230433
0.00234566
0.00238722
0.002429
0.002471
0.00251321
0.0025556
0.00259816
0.00264089
0.00268376
0.00272676
0.00276987
0.00281307
0.00285636
0.0028997
0.00294308
0.00298649
0.0030299
0.00307329
0.00311664
0.00315994
0.00320316
0.00324628
0.00328928
0.00333214
0.00337483
0.00341734
0.00345963
0.0035017
0.00354351
0.00358504
0.00362627
0.00366719
0.00370778
0.003748
0.00378786
0.00382731
0.00386636
0.00390495
0.00394309
0.00398072
0.00401784
0.00405441
0.00409039
0.00412576
0.00416048
0.00419452
0.00422784
0.00426041
0.00429218
0.00432311
0.00435316
0.00438228
0.00441044
0.00443757
0.00446364
0.0044886
0.00451239
0.00453498
0.00455631
0.00457634
0.00459501
0.00461229
0.00462845
0.0046431
0.00465609
0.00466728
0.00467709
0.00468523
0.00469166
0.00469635
0.00469933
0.00470061
0.00470022
0.00469817
0.00469451
0.00468925
0.00468245
0.00467415
0.0046644
0.00465328
0.00464086
0.0046272
0.0046124
0.00459655
0.00457974
0.00456207
0.00454364
0.00452458
0.00450499
0.004485
0.00446471
0.00444427
0.00442378
0.00440337
0.00438317
0.00436329
0.00434385
0.00432496
0.00430673
0.00428925
0.0042726
0.00425686
0.00424207
0.00422821
0.00421525
0.00420314
0.00419184
0.00418131
0.0041715
0.00416233
0.00415373
0.00414556
0.00413753
0.00412883
0.00411739
0.00409879
1.19071e-05
0.000102962
0.000221865
0.00032647
0.000412309
0.000482505
0.000539215
0.00058536
0.00062345
0.000655578
0.000683456
0.000708453
0.000731641
0.000753837
0.000775647
0.000797506
0.000819715
0.000842472
0.000865903
0.000890077
0.000915023
0.000940749
0.000967244
0.000994491
0.00102246
0.00105111
0.00108041
0.00111031
0.00114078
0.00117178
0.00120329
0.00123527
0.0012677
0.00130056
0.00133382
0.00136746
0.00140148
0.00143585
0.00147057
0.00150561
0.00154097
0.00157662
0.00161258
0.00164883
0.00168538
0.00172222
0.00175937
0.00179681
0.00183456
0.00187261
0.00191096
0.00194961
0.00198856
0.0020278
0.00206734
0.00210717
0.00214729
0.00218769
0.00222837
0.00226933
0.00231054
0.00235202
0.00239375
0.00243573
0.00247794
0.00252038
0.00256304
0.0026059
0.00264896
0.0026922
0.00273562
0.00277919
0.00282291
0.00286675
0.00291072
0.00295478
0.00299893
0.00304314
0.00308741
0.00313171
0.00317603
0.00322034
0.00326463
0.00330888
0.00335307
0.00339718
0.00344119
0.00348507
0.00352882
0.0035724
0.0036158
0.003659
0.00370197
0.00374469
0.00378715
0.00382933
0.0038712
0.00391275
0.00395395
0.00399479
0.00403525
0.0040753
0.00411492
0.00415408
0.00419277
0.00423094
0.00426858
0.00430565
0.00434213
0.00437797
0.00441316
0.00444764
0.00448138
0.00451434
0.00454648
0.00457775
0.0046081
0.00463749
0.00466586
0.00469316
0.00471935
0.00474436
0.00476814
0.00479065
0.00481182
0.0048316
0.0048502
0.00486726
0.00488277
0.0048965
0.00490871
0.0049192
0.00492788
0.00493471
0.00493972
0.00494292
0.00494434
0.00494398
0.00494187
0.00493803
0.00493249
0.0049253
0.00491651
0.00490618
0.00489436
0.00488115
0.00486661
0.00485085
0.00483395
0.00481602
0.00479716
0.00477749
0.00475713
0.00473621
0.00471485
0.00469318
0.00467135
0.00464948
0.00462771
0.00460617
0.00458501
0.00456435
0.00454432
0.00452503
0.00450661
0.00448915
0.00447272
0.00445738
0.00444313
0.00442997
0.00441788
0.00440685
0.00439684
0.00438781
0.0043797
0.00437244
0.0043658
0.00435915
0.00435084
0.00433773
1.2458e-05
0.000103955
0.000227446
0.000338436
0.00043084
0.000507197
0.000569808
0.000621307
0.000664222
0.000700664
0.000732373
0.000760753
0.000786918
0.000811731
0.000835846
0.000859743
0.000883766
0.000908153
0.000933064
0.00095859
0.000984775
0.00101163
0.00103916
0.00106741
0.00109635
0.00112593
0.00115611
0.00118685
0.00121812
0.00124988
0.00128212
0.0013148
0.0013479
0.0013814
0.00141529
0.00144954
0.00148415
0.00151911
0.00155441
0.00159006
0.00162598
0.00166216
0.0016986
0.00173531
0.00177228
0.00180952
0.00184704
0.00188482
0.00192288
0.00196122
0.00199983
0.00203872
0.00207788
0.00211731
0.00215702
0.00219699
0.00223724
0.00227775
0.00231852
0.00235956
0.00240085
0.00244239
0.00248418
0.00252621
0.00256847
0.00261097
0.00265369
0.00269662
0.00273976
0.0027831
0.00282662
0.00287032
0.00291419
0.00295821
0.00300238
0.00304666
0.00309107
0.00313557
0.00318015
0.0032248
0.0032695
0.00331423
0.00335898
0.00340372
0.00344844
0.00349312
0.00353773
0.00358226
0.00362668
0.00367099
0.00371515
0.00375914
0.00380295
0.00384656
0.00388994
0.00393308
0.00397596
0.00401855
0.00406084
0.0041028
0.00414443
0.00418569
0.00422656
0.00426703
0.00430707
0.00434666
0.00438576
0.00442436
0.00446242
0.00449991
0.00453681
0.00457308
0.00460867
0.00464357
0.00467771
0.00471105
0.00474355
0.00477516
0.00480583
0.00483549
0.0048641
0.00489159
0.0049179
0.00494299
0.00496678
0.00498923
0.00501042
0.0050301
0.00504827
0.00506479
0.00507967
0.00509282
0.00510405
0.0051133
0.00512063
0.00512607
0.00512961
0.00513125
0.00513102
0.00512891
0.00512496
0.0051192
0.00511167
0.00510241
0.0050915
0.005079
0.005065
0.00504956
0.0050328
0.0050148
0.00499569
0.00497557
0.00495457
0.00493282
0.00491046
0.00488762
0.00486446
0.00484111
0.00481773
0.00479447
0.00477149
0.00474893
0.00472694
0.00470569
0.00468529
0.0046659
0.00464763
0.00463056
0.00461478
0.00460031
0.0045872
0.00457544
0.00456504
0.00455599
0.00454828
0.00454185
0.00453658
0.00453195
0.00452669
0.00451868
1.29125e-05
0.000103928
0.000230481
0.000346557
0.000444651
0.00052645
0.0005944
0.000650861
0.000698304
0.000738825
0.000774165
0.000805746
0.000834704
0.000861938
0.00088814
0.000913824
0.000939366
0.000965035
0.000991084
0.0010176
0.00104464
0.0010722
0.00110026
0.00112894
0.00115821
0.00118806
0.00121847
0.00124939
0.00128082
0.00131271
0.00134504
0.0013778
0.00141097
0.00144452
0.00147844
0.00151271
0.00154731
0.00158225
0.00161753
0.00165312
0.00168887
0.00172483
0.00176101
0.0017974
0.001834
0.00187082
0.00190787
0.00194516
0.00198268
0.00202045
0.00205846
0.00209672
0.00213523
0.00217399
0.00221301
0.00225228
0.00229181
0.0023316
0.00237165
0.00241196
0.00245254
0.00249337
0.00253447
0.00257582
0.00261744
0.0026593
0.00270143
0.0027438
0.00278641
0.00282926
0.00287234
0.00291565
0.00295917
0.00300289
0.00304681
0.00309091
0.00313517
0.00317959
0.00322415
0.00326883
0.00331361
0.00335848
0.00340343
0.00344842
0.00349344
0.00353848
0.0035835
0.00362849
0.00367343
0.00371829
0.00376306
0.00380772
0.00385223
0.00389659
0.00394076
0.00398474
0.00402849
0.004072
0.00411526
0.00415823
0.00420091
0.00424327
0.00428529
0.00432696
0.00436825
0.00440914
0.00444961
0.00448963
0.00452918
0.00456824
0.00460677
0.00464474
0.00468213
0.00471889
0.00475498
0.00479037
0.00482499
0.00485881
0.00489177
0.00492381
0.00495488
0.0049849
0.00501382
0.00504157
0.00506809
0.00509333
0.00511726
0.00513975
0.00516079
0.00518028
0.0051981
0.00521417
0.00522823
0.00524014
0.00525006
0.005258
0.00526395
0.0052679
0.00526983
0.00526976
0.00526769
0.00526365
0.00525766
0.00524977
0.00524003
0.0052285
0.00521526
0.00520039
0.00518397
0.00516611
0.00514691
0.00512649
0.00510498
0.00508251
0.00505921
0.00503525
0.00501077
0.00498594
0.00496091
0.00493586
0.00491096
0.00488638
0.00486231
0.00483891
0.00481636
0.00479483
0.00477449
0.00475547
0.0047379
0.00472188
0.00470747
0.00469475
0.00468375
0.00467449
0.00466701
0.0046613
0.00465729
0.00465458
0.00465219
0.00464876
1.32796e-05
0.000103093
0.000231359
0.000351255
0.00045402
0.00054049
0.000613125
0.000674021
0.000725557
0.000769787
0.000808434
0.000842916
0.000874375
0.000903726
0.000931744
0.000958943
0.000985691
0.00101223
0.00103889
0.00106583
0.00109313
0.00112087
0.00114912
0.00117795
0.00120728
0.00123709
0.00126735
0.00129803
0.00132913
0.00136061
0.00139246
0.00142464
0.00145715
0.00148997
0.0015231
0.0015565
0.00159014
0.00162409
0.00165835
0.00169295
0.00172776