/*--------------------------------*- C++ -*----------------------------------*\
| =========                 |                                                 |
| \\      /  F ield         | OpenFOAM: The Open Source CFD Toolbox           |
|  \\    /   O peration     | Version:  2406                                  |
|   \\  /    A nd           | Website:  www.openfoam.com                      |
|    \\/     M anipulation  |                                                 |
\*---------------------------------------------------------------------------*/
FoamFile
{
    version     2.0;
    format      ascii;
    arch        "LSB;label=32;scalar=64";
    class       volScalarField;
    location    "200";
    object      p;
}
// * * * * * * * * * * * * * * * * * * * * * * * * * * * * * * * * * * * * * //

dimensions      [0 2 -2 0 0 0 0];

internalField   nonuniform List<scalar> 
12225
(
-2.66685
-4.82408
-5.9167
-6.23046
-6.4073
-6.58609
-6.73422
-6.84592
-6.93761
-7.02064
-7.09808
-7.171
-7.24108
-7.31034
-7.38127
-7.45337
-7.54123
-7.59519
-5.79708
-6.58475
-6.78967
-6.70172
-6.67672
-6.74104
-6.82418
-6.89855
-6.96809
-7.03742
-7.10611
-7.17325
-7.2394
-7.30575
-7.374
-7.44544
-7.52491
-7.628
-6.1771
-6.11105
-6.23053
-6.31761
-6.42602
-6.56855
-6.70341
-6.81392
-6.90799
-6.9937
-7.07354
-7.14837
-7.21973
-7.28941
-7.35942
-7.43098
-7.50889
-7.5919
-6.04979
-5.96235
-6.2216
-6.41374
-6.53628
-6.65757
-6.77122
-6.86565
-6.94686
-7.02213
-7.09375
-7.16218
-7.22839
-7.29366
-7.35932
-7.4261
-7.49515
-7.56113
-6.04136
-6.05591
-6.30293
-6.46797
-6.56095
-6.65945
-6.76174
-6.85224
-6.93236
-7.0075
-7.07945
-7.14835
-7.21486
-7.27994
-7.3445
-7.40873
-7.4722
-7.53114
-6.10241
-6.14747
-6.33399
-6.47401
-6.56423
-6.66039
-6.76098
-6.85146
-6.9318
-7.00671
-7.07805
-7.14612
-7.21148
-7.27493
-7.33704
-7.3977
-7.45606
-7.50925
-6.16502
-6.20726
-6.35131
-6.48168
-6.5758
-6.66961
-6.76568
-6.85338
-6.93202
-7.00532
-7.07509
-7.14165
-7.20542
-7.26694
-7.32652
-7.38383
-7.43792
-7.48647
-6.22053
-6.25772
-6.37525
-6.49612
-6.5897
-6.67888
-6.76942
-6.85392
-6.93074
-7.00251
-7.0708
-7.13593
-7.19815
-7.2578
-7.31499
-7.36929
-7.41983
-7.46486
-6.2723
-6.30614
-6.40373
-6.5126
-6.60273
-6.68738
-6.7729
-6.85421
-6.92911
-6.99924
-7.06592
-7.12947
-7.18999
-7.24768
-7.3025
-7.35404
-7.40158
-7.44385
-6.32139
-6.35199
-6.4334
-6.53003
-6.61563
-6.69615
-6.77697
-6.85482
-6.92745
-6.99569
-7.06055
-7.12232
-7.18101
-7.23667
-7.28921
-7.33826
-7.38329
-7.42338
-6.3676
-6.39471
-6.46316
-6.54853
-6.62891
-6.70529
-6.78155
-6.85576
-6.92583
-6.99196
-7.05484
-7.11469
-7.17144
-7.22507
-7.27545
-7.32226
-7.36515
-7.40347
-6.40713
-6.43116
-6.4901
-6.56621
-6.64135
-6.71381
-6.78606
-6.85688
-6.92441
-6.98846
-7.04942
-7.1074
-7.16234
-7.21413
-7.26263
-7.3076
-7.3488
-7.38576
-6.44345
-6.46483
-6.51597
-6.58385
-6.65369
-6.72224
-6.79066
-6.85813
-6.92306
-6.98495
-7.04393
-7.10004
-7.15316
-7.20316
-7.24991
-7.29321
-7.33293
-7.36874
-6.48121
-6.49998
-6.54385
-6.60359
-6.66753
-6.73162
-6.79588
-6.85963
-6.92153
-6.98089
-7.03757
-7.09152
-7.14259
-7.19064
-7.23552
-7.27713
-7.31537
-7.35007
-6.51889
-6.53512
-6.57251
-6.62459
-6.68232
-6.74153
-6.80138
-6.86114
-6.91966
-6.97613
-7.03023
-7.08179
-7.13063
-7.17661
-7.21959
-7.2595
-7.29632
-7.32995
-6.55419
-6.56809
-6.59996
-6.64522
-6.69688
-6.75106
-6.80643
-6.86211
-6.91706
-6.97044
-7.02178
-7.07082
-7.11736
-7.16123
-7.20233
-7.24061
-7.2761
-7.30873
-6.58372
-6.59569
-6.62316
-6.66279
-6.70906
-6.75854
-6.80969
-6.86151
-6.913
-6.96332
-7.01193
-7.0585
-7.10281
-7.14469
-7.18405
-7.22085
-7.25512
-7.28688
-6.6025
-6.61309
-6.6375
-6.67313
-6.71538
-6.76119
-6.80896
-6.85764
-6.90625
-6.95398
-7.00026
-7.04472
-7.08713
-7.12733
-7.16523
-7.20081
-7.23408
-7.2651
-6.60279
-6.61275
-6.63582
-6.66977
-6.71029
-6.75439
-6.80047
-6.8475
-6.89455
-6.94082
-6.98573
-7.02892
-7.07016
-7.10933
-7.14634
-7.18119
-7.21391
-7.24457
-6.57853
-6.58901
-6.61329
-6.64902
-6.6914
-6.73695
-6.78405
-6.83189
-6.87958
-6.92632
-6.97151
-7.01486
-7.05617
-7.09534
-7.13231
-7.16711
-7.19977
-7.23039
-6.54423
-6.55561
-6.58237
-6.62198
-6.66822
-6.71676
-6.76629
-6.8163
-6.86585
-6.91399
-6.96026
-7.00444
-7.04642
-7.08613
-7.12354
-7.15871
-7.1917
-7.22265
-6.5019
-6.514
-6.54454
-6.59079
-6.64271
-6.69483
-6.74739
-6.80056
-6.85289
-6.90317
-6.95104
-6.99648
-7.03943
-7.07986
-7.11781
-7.15336
-7.18663
-7.21776
-6.45493
-6.46633
-6.50139
-6.5577
-6.6173
-6.67346
-6.72933
-6.78584
-6.84102
-6.89355
-6.94331
-6.99037
-7.03465
-7.07614
-7.11493
-7.15118
-7.18507
-7.21681
-6.40586
-6.41492
-6.45632
-6.52402
-6.59041
-6.65154
-6.71305
-6.77419
-6.83214
-6.88639
-6.93752
-6.98568
-7.03075
-7.07276
-7.11191
-7.14841
-7.18244
-7.21412
-6.35469
-6.35599
-6.41896
-6.5008
-6.56457
-6.62541
-6.69314
-6.76099
-6.82357
-6.88122
-6.93519
-6.98564
-7.0324
-7.07559
-7.11554
-7.1526
-7.18708
-7.21947
-6.30842
-6.25996
-6.37586
-6.49754
-6.5603
-6.61315
-6.67801
-6.74494
-6.80688
-6.86457
-6.91929
-6.97078
-7.01863
-7.0629
-7.1039
-7.14197
-7.17731
-7.21007
-6.32551
-6.1275
-6.26082
-6.43908
-6.54455
-6.62536
-6.70505
-6.77757
-6.84083
-6.8982
-6.95163
-7.00111
-7.04651
-7.0882
-7.12662
-7.1622
-7.19545
-7.22741
-6.46639
-6.21894
-6.19554
-6.25085
-6.33389
-6.44253
-6.55394
-6.65177
-6.73666
-6.81316
-6.88289
-6.94575
-7.00199
-7.05244
-7.09791
-7.13905
-7.17667
-7.21207
-6.19438
-6.8251
-6.94383
-6.80394
-6.71631
-6.72368
-6.76592
-6.81086
-6.85648
-6.9047
-6.9537
-7.00106
-7.04544
-7.08677
-7.1251
-7.16032
-7.19276
-7.22379
-3.13992
-4.90702
-5.92033
-6.20187
-6.32837
-6.47111
-6.60105
-6.70175
-6.78401
-6.8572
-6.9234
-6.9825
-7.03506
-7.08201
-7.12404
-7.16135
-7.19407
-7.22067
-8.02136
-8.02115
-8.02155
-8.02271
-8.02433
-8.02617
-8.02811
-8.03015
-8.03229
-8.03455
-8.03695
-8.03955
-8.04237
-8.04547
-8.04889
-8.05265
-8.0568
-8.06137
-8.06641
-8.07197
-8.0781
-8.08484
-8.09224
-8.10036
-8.10925
-8.11894
-8.12949
-8.14092
-8.15327
-8.16656
-8.18079
-8.19597
-8.2121
-8.22915
-8.2471
-8.26594
-8.28564
-8.3062
-8.32761
-8.34982
-8.37274
-8.3963
-8.42038
-8.44497
-8.47001
-8.49546
-8.52127
-8.54741
-8.5738
-8.60042
-8.62718
-8.65404
-8.68092
-8.70776
-8.73447
-8.76099
-8.7872
-8.81304
-8.83839
-8.86316
-8.88722
-8.91047
-8.93276
-8.95398
-8.97396
-8.99258
-9.00967
-9.02508
-9.03861
-9.05012
-9.05939
-9.06626
-9.0705
-9.07194
-9.07035
-9.06553
-9.05724
-9.04527
-9.02937
-9.00934
-8.9849
-8.95587
-8.92196
-8.88299
-8.83866
-8.78878
-8.73308
-8.67134
-8.60331
-8.52879
-8.44758
-8.35949
-8.26435
-8.16202
-8.05249
-7.93573
-7.8116
-7.67959
-7.53928
-7.39068
-7.23392
-7.06902
-6.89599
-6.71487
-6.5257
-6.32854
-6.12351
-5.91073
-5.69039
-5.46266
-5.22781
-4.98607
-4.73777
-4.48321
-4.22276
-3.9568
-3.68577
-3.41008
-3.13021
-2.8466
-2.55977
-2.2702
-1.97844
-1.685
-1.39039
-1.09512
-0.79968
-0.504587
-0.210303
0.0827152
0.374028
0.663199
0.949841
1.23357
1.51406
1.79099
2.0641
2.33316
2.59801
2.85847
3.11441
3.36576
3.61247
3.85459
4.09217
4.3253
4.55411
4.77879
4.99954
5.21659
5.43023
5.64077
5.84852
6.05387
6.2572
6.45892
6.65947
6.85931
7.05889
7.25871
7.45924
7.661
7.86444
8.07005
8.2783
8.48957
8.70429
8.92294
9.14563
9.37202
9.6018
9.83501
10.0715
10.3111
10.553
10.7969
11.0425
11.2891
11.5475
11.8064
-8.02114
-8.02119
-8.0217
-8.02279
-8.02412
-8.02541
-8.0266
-8.02773
-8.02892
-8.03028
-8.03188
-8.03378
-8.03597
-8.03845
-8.04124
-8.04438
-8.0479
-8.05186
-8.05629
-8.06125
-8.06679
-8.07297
-8.07983
-8.08745
-8.09587
-8.10513
-8.11527
-8.12634
-8.13835
-8.15133
-8.16528
-8.18021
-8.19609
-8.21291
-8.23064
-8.24926
-8.26872
-8.28901
-8.3101
-8.33193
-8.35445
-8.3776
-8.4013
-8.42551
-8.45019
-8.47528
-8.50074
-8.52653
-8.55259
-8.57888
-8.60532
-8.63188
-8.65847
-8.68503
-8.71149
-8.73776
-8.76377
-8.78942
-8.81461
-8.83924
-8.8632
-8.88638
-8.90863
-8.92984
-8.94987
-8.96857
-8.98577
-9.00134
-9.01509
-9.02684
-9.03642
-9.04364
-9.0483
-9.0502
-9.04913
-9.04488
-9.03722
-9.02595
-9.01082
-8.99161
-8.96807
-8.93999
-8.90713
-8.86925
-8.82612
-8.77749
-8.72314
-8.66284
-8.59635
-8.52347
-8.44401
-8.35777
-8.26455
-8.16417
-8.05645
-7.94114
-7.818
-7.68696
-7.54813
-7.40144
-7.24675
-7.084
-6.91317
-6.73426
-6.5473
-6.35237
-6.14957
-5.93901
-5.72085
-5.49529
-5.26255
-5.02288
-4.77658
-4.52395
-4.26535
-4.00116
-3.73178
-3.45764
-3.1792
-2.89691
-2.61126
-2.32275
-2.03191
-1.73926
-1.4453
-1.15054
-0.855478
-0.560612
-0.266429
0.0266293
0.318108
0.607581
0.894644
1.17892
1.46007
1.73776
2.01173
2.28175
2.54762
2.80917
3.06625
3.31877
3.56668
3.81002
4.04881
4.28315
4.51315
4.73899
4.96084
5.17895
5.39358
5.60503
5.81361
6.0197
6.22366
6.42591
6.62687
6.82699
7.02673
7.22656
7.42698
7.62847
7.83149
8.03656
8.24415
8.45466
8.66842
8.88585
9.10705
9.33176
9.55986
9.79143
10.0264
10.2644
10.5052
10.7482
10.994
11.2413
11.5034
11.7561
-8.01748
-8.01827
-8.0196
-8.02102
-8.02217
-8.02297
-8.02351
-8.02393
-8.02438
-8.02497
-8.02579
-8.02689
-8.02832
-8.03012
-8.03232
-8.03494
-8.03803
-8.04161
-8.04575
-8.05048
-8.05585
-8.06193
-8.06875
-8.07635
-8.08479
-8.09408
-8.10426
-8.11535
-8.12736
-8.14029
-8.15414
-8.16891
-8.18457
-8.20113
-8.21854
-8.23678
-8.25583
-8.27565
-8.2962
-8.31746
-8.33937
-8.36189
-8.38496
-8.40855
-8.4326
-8.45709
-8.48195
-8.50714
-8.53262
-8.55834
-8.58423
-8.61025
-8.63632
-8.66238
-8.68836
-8.71419
-8.73977
-8.76502
-8.78984
-8.81413
-8.83779
-8.8607
-8.88272
-8.90375
-8.92362
-8.94222
-8.95937
-8.97493
-8.98873
-9.00059
-9.01033
-9.01776
-9.0227
-9.02495
-9.02429
-9.02052
-9.01342
-9.00278
-8.98835
-8.96992
-8.94726
-8.92013
-8.8883
-8.85153
-8.8096
-8.76227
-8.70929
-8.65045
-8.58552
-8.5143
-8.43658
-8.35218
-8.26089
-8.16254
-8.05692
-7.9438
-7.82293
-7.69424
-7.55774
-7.41341
-7.26116
-7.10091
-6.93263
-6.75631
-6.57198
-6.37969
-6.17952
-5.9716
-5.75607
-5.53311
-5.30294
-5.06579
-4.82196
-4.57173
-4.31546
-4.0535
-3.78626
-3.51415
-3.23762
-2.95711
-2.67312
-2.38612
-2.09665
-1.80522
-1.51234
-1.21852
-0.924237
-0.629981
-0.336258
-0.0435153
0.247794
0.537251
0.824441
1.10899
1.39054
1.66877
1.94339
2.21417
2.48089
2.74336
3.00144
3.25501
3.50403
3.74849
3.98842
4.2239
4.45502
4.68193
4.90482
5.12389
5.33942
5.55166
5.76094
5.96759
6.172
6.37453
6.57563
6.77571
6.97524
7.17467
7.37449
7.5752
7.77726
7.98112
8.18732
8.39632
8.60845
8.82407
9.04331
9.26607
9.49233
9.72214
9.95544
10.192
10.4317
10.6742
10.9204
11.1685
11.4337
11.6739
-8.01005
-8.01184
-8.01458
-8.01691
-8.0185
-8.01953
-8.02017
-8.0206
-8.02096
-8.02139
-8.022
-8.02286
-8.02405
-8.02561
-8.02759
-8.03004
-8.03298
-8.03648
-8.04057
-8.0453
-8.05071
-8.05685
-8.06374
-8.07143
-8.07995
-8.08931
-8.09954
-8.11065
-8.12263
-8.1355
-8.14923
-8.16383
-8.17929
-8.19558
-8.21268
-8.23058
-8.24923
-8.26862
-8.28871
-8.30947
-8.33086
-8.35285
-8.37538
-8.39844
-8.42197
-8.44593
-8.47029
-8.49499
-8.51999
-8.54525
-8.57071
-8.5963
-8.62198
-8.64767
-8.6733
-8.69881
-8.72409
-8.74908
-8.77367
-8.79776
-8.82125
-8.84402
-8.86595
-8.88691
-8.90677
-8.92538
-8.94259
-8.95825
-8.97219
-8.98424
-8.99422
-9.00194
-9.00722
-9.00986
-9.00964
-9.00637
-8.99982
-8.98978
-8.97603
-8.95832
-8.93645
-8.91016
-8.87924
-8.84345
-8.80254
-8.7563
-8.70447
-8.64685
-8.58318
-8.51328
-8.43694
-8.35395
-8.26412
-8.16726
-8.06316
-7.95164
-7.83249
-7.70561
-7.57097
-7.4285
-7.27814
-7.1198
-6.95347
-6.77911
-6.59676
-6.40646
-6.20828
-6.00234
-5.78878
-5.56777
-5.33951
-5.10424
-4.86223
-4.61377
-4.35921
-4.09889
-3.83321
-3.56258
-3.28743
-3.00821
-2.7254
-2.4395
-2.15099
-1.86041
-1.56828
-1.27509
-0.981339
-0.687487
-0.394035
-0.101456
0.189805
0.479326
0.766698
1.05154
1.33348
1.61221
1.88743
2.15889
2.42637
2.68966
2.94863
3.20314
3.45315
3.69862
3.93959
4.1761
4.40826
4.63619
4.86007
5.0801
5.29652
5.50959
5.71962
5.92693
6.13188
6.33485
6.53624
6.73647
6.93601
7.13527
7.33473
7.53487
7.7362
7.93915
8.14419
8.35174
8.56214
8.77577
8.9928
9.21333
9.43739
9.66507
9.89632
10.131
10.369
10.6101
10.8552
11.102
11.3652
11.5915
-8.00023
-8.00315
-8.00771
-8.01139
-8.01384
-8.01548
-8.0166
-8.01739
-8.01801
-8.01864
-8.01939
-8.02038
-8.02167
-8.02335
-8.02546
-8.02805
-8.03117
-8.03486
-8.03917
-8.04413
-8.04977
-8.05615
-8.06328
-8.07119
-8.0799
-8.08943
-8.09979
-8.11099
-8.12302
-8.13589
-8.14959
-8.16411
-8.17943
-8.19554
-8.21242
-8.23005
-8.2484
-8.26746
-8.28719
-8.30756
-8.32855
-8.35013
-8.37225
-8.3949
-8.41802
-8.44159
-8.46555
-8.48989
-8.51453
-8.53945
-8.56457
-8.58987
-8.61526
-8.64069
-8.66608
-8.69136
-8.71646
-8.74127
-8.76572
-8.7897
-8.8131
-8.83582
-8.85772
-8.87868
-8.89858
-8.91726
-8.93457
-8.95037
-8.96448
-8.97673
-8.98696
-8.99496
-9.00056
-9.00355
-9.00373
-9.00089
-8.99482
-8.9853
-8.97211
-8.95501
-8.93378
-8.90818
-8.87799
-8.84297
-8.80288
-8.75749
-8.70656
-8.64986
-8.58717
-8.51828
-8.44298
-8.36106
-8.27232
-8.17656
-8.07361
-7.96327
-7.84538
-7.71982
-7.58651
-7.44537
-7.29633
-7.13932
-6.9743
-6.80126
-6.62022
-6.43123
-6.23434
-6.02967
-5.81735
-5.59755
-5.37047
-5.13634
-4.89543
-4.64803
-4.39446
-4.13509
-3.87029
-3.60047
-3.32607
-3.04753
-2.76533
-2.47996
-2.19193
-1.90175
-1.60993
-1.317
-1.02344
-0.72972
-0.436311
-0.143716
0.147636
0.437305
0.724901
1.01001
1.2923
1.57141
1.84707
2.11901
2.38699
2.65083
2.91035
3.16545
3.41605
3.66214
3.90371
4.14084
4.37358
4.60209
4.8265
5.04705
5.26393
5.47743
5.68781
5.89542
6.10059
6.30372
6.50516
6.70534
6.90469
7.10368
7.30274
7.50235
7.70295
7.90501
8.10897
8.31525
8.52419
8.73616
8.95138
9.17002
9.39221
9.61805
9.84753
10.0805
10.3169
10.5565
10.8
11.0443
11.3033
11.5169
-7.99005
-7.99399
-8.00039
-8.00555
-8.00902
-8.01148
-8.01328
-8.01463
-8.01574
-8.01678
-8.0179
-8.01923
-8.02084
-8.02284
-8.02526
-8.02818
-8.03164
-8.03568
-8.04033
-8.04564
-8.05162
-8.05833
-8.06576
-8.07396
-8.08293
-8.09268
-8.10321
-8.11455
-8.12667
-8.13958
-8.15328
-8.16774
-8.18297
-8.19895
-8.21566
-8.23308
-8.2512
-8.27
-8.28945
-8.30954
-8.33023
-8.3515
-8.37331
-8.39565
-8.41847
-8.44174
-8.46542
-8.48948
-8.51386
-8.53853
-8.56343
-8.58851
-8.61372
-8.63897
-8.66422
-8.68938
-8.71437
-8.73911
-8.7635
-8.78745
-8.81084
-8.83358
-8.85553
-8.87657
-8.89656
-8.91537
-8.93284
-8.94882
-8.96314
-8.97563
-8.98612
-8.99442
-9.00034
-9.00368
-9.00424
-9.00181
-8.99618
-8.98712
-8.97442
-8.95785
-8.93717
-8.91215
-8.88257
-8.84818
-8.80875
-8.76405
-8.71383
-8.65787
-8.59594
-8.52783
-8.45333
-8.37222
-8.28431
-8.18939
-8.08729
-7.97782
-7.86084
-7.73621
-7.60382
-7.4636
-7.31545
-7.15933
-6.99518
-6.823
-6.64279
-6.4546
-6.2585
-6.05459
-5.84299
-5.62388
-5.39745
-5.16394
-4.92359
-4.67671
-4.42361
-4.16466
-3.90024
-3.63075
-3.35662
-3.0783
-2.79628
-2.51105
-2.22311
-1.93298
-1.64116
-1.34819
-1.05457
-0.760759
-0.46723
-0.174472
0.117066
0.406959
0.694797
0.98018
1.26274
1.54216
1.81812
2.09036
2.35864
2.62277
2.88256
3.13793
3.38878
3.6351
3.87688
4.11417
4.34706
4.57567
4.80014
5.02068
5.23752
5.45094
5.66118
5.86858
6.07347
6.27623
6.47725
6.67694
6.87572
7.07404
7.27234
7.4711
7.67075
7.87177
8.07459
8.27964
8.48727
8.69781
8.91155
9.12868
9.3494
9.57382
9.80194
10.0337
10.2689
10.5071
10.749
10.9908
11.2456
11.4482
-7.98128
-7.98603
-7.99392
-8.00043
-8.00495
-8.00826
-8.01081
-8.01283
-8.01452
-8.0161
-8.01772
-8.01951
-8.02157
-8.024
-8.02684
-8.03018
-8.03404
-8.03848
-8.04352
-8.04921
-8.05556
-8.0626
-8.07036
-8.07883
-8.08805
-8.09801
-8.10873
-8.1202
-8.13242
-8.14539
-8.1591
-8.17355
-8.18873
-8.20462
-8.22122
-8.23851
-8.25648
-8.2751
-8.29437
-8.31425
-8.33473
-8.35578
-8.37738
-8.39951
-8.42212
-8.44519
-8.46868
-8.49255
-8.51677
-8.54129
-8.56606
-8.59103
-8.61613
-8.64132
-8.6665
-8.69163
-8.71661
-8.74135
-8.76578
-8.78978
-8.81325
-8.83608
-8.85815
-8.87934
-8.89949
-8.91848
-8.93616
-8.95236
-8.96693
-8.97969
-8.99046
-8.99907
-9.00531
-9.009
-9.00992
-9.00788
-9.00264
-8.99401
-8.98174
-8.96561
-8.9454
-8.92087
-8.89179
-8.85791
-8.81901
-8.77485
-8.72519
-8.66979
-8.60844
-8.54091
-8.46701
-8.3865
-8.29918
-8.20487
-8.10337
-7.99451
-7.87814
-7.75412
-7.62235
-7.48271
-7.33513
-7.17955
-7.01592
-6.84423
-6.66449
-6.47674
-6.28104
-6.0775
-5.86624
-5.64742
-5.42125
-5.18795
-4.94777
-4.70102
-4.44802
-4.18912
-3.9247
-3.65517
-3.38097
-3.10256
-2.82041
-2.53501
-2.24689
-1.95655
-1.66451
-1.37129
-1.07741
-0.783356
-0.489586
-0.196565
0.0952351
0.385409
0.673516
0.959171
1.24199
1.52165
1.79784
2.07028
2.33873
2.60297
2.86288
3.11831
3.36921
3.6155
3.85723
4.0944
4.32714
4.55553
4.77974
4.99995
5.2164
5.42933
5.63905
5.84584
6.05008
6.25209
6.4523
6.65109
6.84892
7.0462
7.24341
7.441
7.63945
7.8392
8.04071
8.24441
8.45066
8.65982
8.87217
9.08796
9.30741
9.53063
9.75764
9.98833
10.2225
10.4597
10.7001
10.9395
11.1907
11.3843
-7.97507
-7.98038
-7.98923
-7.99678
-8.00221
-8.00632
-8.00958
-8.01225
-8.01455
-8.0167
-8.01884
-8.02114
-8.02368
-8.02656
-8.02986
-8.03362
-8.0379
-8.04274
-8.04817
-8.05423
-8.06092
-8.06828
-8.07633
-8.08507
-8.09451
-8.10468
-8.11555
-8.12715
-8.13947
-8.15251
-8.16626
-8.18072
-8.19588
-8.21174
-8.22828
-8.2455
-8.26337
-8.28189
-8.30103
-8.3208
-8.34115
-8.36207
-8.38354
-8.40554
-8.42803
-8.451
-8.47439
-8.49818
-8.52233
-8.54679
-8.57152
-8.59647
-8.62157
-8.64676
-8.67198
-8.69716
-8.72221
-8.74705
-8.77158
-8.79571
-8.81933
-8.84233
-8.86458
-8.88596
-8.90633
-8.92555
-8.94347
-8.95993
-8.97477
-8.98782
-8.99889
-9.0078
-9.01436
-9.01838
-9.01964
-9.01794
-9.01307
-9.00479
-8.9929
-8.97716
-8.95733
-8.9332
-8.90451
-8.87104
-8.83254
-8.78878
-8.73953
-8.68455
-8.62361
-8.5565
-8.483
-8.4029
-8.31598
-8.22206
-8.12094
-8.01246
-7.89646
-7.7728
-7.64137
-7.50205
-7.35476
-7.19944
-7.03604
-6.86455
-6.68498
-6.49736
-6.30177
-6.09828
-5.88705
-5.66822
-5.442
-5.20861
-4.9683
-4.72139
-4.46818
-4.20904
-3.94435
-3.67453
-3.4
-3.12124
-2.83873
-2.55297
-2.26447
-1.97374
-1.68132
-1.38772
-1.09347
-0.799071
-0.504983
-0.211658
0.0804454
0.370906
0.659288
0.945187
1.22823
1.50807
1.78441
2.05694
2.32545
2.58971
2.84958
3.10494
3.35571
3.60185
3.84335
4.08024
4.31262
4.54059
4.76433
4.984
5.19983
5.41208
5.62104
5.82699
6.03031
6.23135
6.4305
6.62818
6.82481
7.02085
7.21675
7.41299
7.61004
7.80836
8.00842
8.21064
8.41543
8.62316
8.83412
9.04862
9.26685
9.48897
9.71497
9.94473
10.178
10.4141
10.6532
10.8903
11.1386
11.3249
-7.97196
-7.97752
-7.98681
-7.99501
-8.00113
-8.00588
-8.00975
-8.013
-8.01585
-8.01852
-8.02117
-8.02394
-8.02694
-8.03026
-8.03397
-8.03814
-8.0428
-8.048
-8.05378
-8.06015
-8.06715
-8.07479
-8.08309
-8.09206
-8.10171
-8.11204
-8.12307
-8.13479
-8.14721
-8.16032
-8.17413
-8.18862
-8.2038
-8.21965
-8.23618
-8.25337
-8.2712
-8.28968
-8.30877
-8.32848
-8.34878
-8.36965
-8.39108
-8.41303
-8.43549
-8.45843
-8.48181
-8.5056
-8.52976
-8.55426
-8.57903
-8.60404
-8.62921
-8.65451
-8.67984
-8.70514
-8.73034
-8.75534
-8.78004
-8.80436
-8.82819
-8.8514
-8.87388
-8.8955
-8.91612
-8.9356
-8.95378
-8.97052
-8.98564
-8.99897
-9.01033
-9.01954
-9.0264
-9.03071
-9.03228
-9.03089
-9.02631
-9.01835
-9.00675
-8.99131
-8.97179
-8.94795
-8.91956
-8.88638
-8.84817
-8.8047
-8.75572
-8.70101
-8.64033
-8.57348
-8.50022
-8.42035
-8.33366
-8.23994
-8.13902
-8.03072
-7.91488
-7.79137
-7.66005
-7.52082
-7.37359
-7.2183
-7.0549
-6.88338
-6.70373
-6.51601
-6.32026
-6.1166
-5.90514
-5.68606
-5.45954
-5.22581
-4.98514
-4.73783
-4.4842
-4.2246
-3.95943
-3.68911
-3.41407
-3.13479
-2.85176
-2.56548
-2.27647
-1.98525
-1.69235
-1.3983
-1.10361
-0.808831
-0.514401
-0.22077
0.071626
0.362343
0.650957
0.937039
1.22022
1.50015
1.77652
2.04905
2.31749
2.58165
2.84134
3.09649
3.34698
3.59278
3.83387
4.07031
4.30216
4.52955
4.75261
4.97155
5.18657
5.39796
5.60597
5.81093
6.01317
6.21308
6.41104
6.60746
6.80279
6.99747
7.19197
7.38677
7.58234
7.77917
7.97772
8.17845
8.38177
8.58807
8.79769
9.01093
9.22802
9.4491
9.67419
9.90309
10.1355
10.3707
10.6084
10.8436
11.0893
11.27
-7.97194
-7.97748
-7.98676
-7.99524
-8.00178
-8.00697
-8.0113
-8.015
-8.01831
-8.02142
-8.0245
-8.02769
-8.03108
-8.03478
-8.03885
-8.04335
-8.04834
-8.05385
-8.05991
-8.06655
-8.0738
-8.08167
-8.09017
-8.09933
-8.10915
-8.11963
-8.13079
-8.14263
-8.15514
-8.16833
-8.1822
-8.19675
-8.21196
-8.22785
-8.24439
-8.2616
-8.27945
-8.29793
-8.31704
-8.33676
-8.35707
-8.37796
-8.39941
-8.4214
-8.4439
-8.46689
-8.49033
-8.5142
-8.53845
-8.56305
-8.58794
-8.61307
-8.6384
-8.66385
-8.68936
-8.71485
-8.74024
-8.76545
-8.79038
-8.81494
-8.839
-8.86246
-8.88519
-8.90707
-8.92795
-8.9477
-8.96615
-8.98315
-8.99854
-9.01213
-9.02376
-9.03323
-9.04034
-9.04491
-9.04672
-9.04557
-9.04123
-9.03349
-9.02212
-9.00689
-8.98757
-8.96392
-8.93572
-8.90271
-8.86467
-8.82136
-8.77253
-8.71795
-8.6574
-8.59065
-8.51749
-8.4377
-8.35107
-8.2574
-8.1565
-8.04821
-7.93236
-7.80881
-7.67742
-7.5381
-7.39075
-7.2353
-7.07171
-6.89995
-6.72004
-6.53201
-6.33593
-6.13189
-5.92002
-5.70049
-5.47349
-5.23925
-4.99804
-4.75015
-4.49593
-4.23572
-3.96992
-3.69895
-3.42328
-3.14336
-2.85971
-2.57282
-2.28322
-1.99144
-1.69802
-1.40347
-1.10835
-0.813186
-0.518429
-0.224516
0.0681173
0.359047
0.647834
0.934036
1.21727
1.49719
1.77349
2.04589
2.31413
2.57803
2.83742
3.09218
3.34222
3.5875
3.828
4.06378
4.2949
4.5215
4.7437
4.96172
5.17577
5.38611
5.59302
5.79683
5.99787
6.19652
6.39317
6.58824
6.78218
6.97544
7.16848
7.3618
7.55587
7.75119
7.94825
8.14749
8.34938
8.55431
8.76265
8.97471
9.19074
9.41088
9.63512
9.86325
10.0949
10.3291
10.5657
10.7991
11.0428
11.2193
-7.97473
-7.98004
-7.98896
-7.99736
-8.00404
-8.00947
-8.01407
-8.01808
-8.02172
-8.02516
-8.02857
-8.03208
-8.03578
-8.03978
-8.04413
-8.04891
-8.05415
-8.05989
-8.06617
-8.07303
-8.08047
-8.08852
-8.09719
-8.1065
-8.11645
-8.12706
-8.13833
-8.15026
-8.16286
-8.17614
-8.19008
-8.20469
-8.21996
-8.23591
-8.25251
-8.26976
-8.28767
-8.30621
-8.32538
-8.34517
-8.36555
-8.38652
-8.40805
-8.43013
-8.45274
-8.47585
-8.49942
-8.52343
-8.54783
-8.57259
-8.59765
-8.62297
-8.64849
-8.67415
-8.69988
-8.7256
-8.75122
-8.77667
-8.80185
-8.82665
-8.85097
-8.87468
-8.89766
-8.91979
-8.94092
-8.96091
-8.97959
-8.99683
-9.01243
-9.02624
-9.03807
-9.04774
-9.05504
-9.05978
-9.06176
-9.06076
-9.05656
-9.04895
-9.03769
-9.02257
-9.00335
-8.97979
-8.95165
-8.9187
-8.88071
-8.83742
-8.78861
-8.73404
-8.67348
-8.60671
-8.53351
-8.45365
-8.36695
-8.27318
-8.17217
-8.06374
-7.94773
-7.82399
-7.69239
-7.55283
-7.4052
-7.24944
-7.08551
-6.91338
-6.73306
-6.54458
-6.34802
-6.14346
-5.93104
-5.71092
-5.48331
-5.24843
-5.00655
-4.75798
-4.50305
-4.24213
-3.97561
-3.70393
-3.42754
-3.14693
-2.86259
-2.57505
-2.28484
-1.99249
-1.69853
-1.40349
-1.10795
-0.812411
-0.517346
-0.223184
0.0696316
0.360704
0.649577
0.935804
1.21899
1.49878
1.77487
2.04698
2.31487
2.57832
2.83721
3.09138
3.34078
3.58533
3.82505
4.05996
4.29017
4.51577
4.73694
4.95385
5.16675
5.37588
5.58155
5.78405
5.98376
6.18104
6.37629
6.56993
6.76241
6.95418
7.14574
7.33756
7.53015
7.72399
7.91959
8.11742
8.31795
8.5216
8.72876
8.93976
9.15485
9.37416
9.59767
9.82513
10.0561
10.2895
10.5251
10.7569
10.999
11.1723
-7.97986
-7.98477
-7.99307
-8.00111
-8.00768
-8.01312
-8.01782
-8.02198
-8.0258
-8.02945
-8.03307
-8.0368
-8.04072
-8.04493
-8.04949
-8.05445
-8.05988
-8.0658
-8.07224
-8.07925
-8.08683
-8.095
-8.1038
-8.11322
-8.12328
-8.13398
-8.14534
-8.15737
-8.17005
-8.1834
-8.19742
-8.21211
-8.22747
-8.24349
-8.26018
-8.27752
-8.29551
-8.31415
-8.33341
-8.3533
-8.37381
-8.3949
-8.41658
-8.43881
-8.46157
-8.48484
-8.50859
-8.53278
-8.55738
-8.58233
-8.60761
-8.63314
-8.65888
-8.68477
-8.71072
-8.73668
-8.76254
-8.78823
-8.81364
-8.83867
-8.86321
-8.88714
-8.91033
-8.93266
-8.95398
-8.97415
-8.99301
-9.01039
-9.02614
-9.04008
-9.05202
-9.06179
-9.06917
-9.07399
-9.07602
-9.07506
-9.07089
-9.06329
-9.05203
-9.0369
-9.01764
-8.99404
-8.96585
-8.93283
-8.89476
-8.85138
-8.80247
-8.74777
-8.68708
-8.62015
-8.54679
-8.46676
-8.37986
-8.28588
-8.18463
-8.07595
-7.95966
-7.83562
-7.7037
-7.56378
-7.41577
-7.25959
-7.09521
-6.9226
-6.74177
-6.55275
-6.35561
-6.15045
-5.93739
-5.71661
-5.48831
-5.25272
-5.01012
-4.76081
-4.50513
-4.24345
-3.97617
-3.70374
-3.42661
-3.14528
-2.86025
-2.57206
-2.28122
-1.98828
-1.6938
-1.39831
-1.10237
-0.806501
-0.511173
-0.216845
0.076061
0.367152
0.655984
0.94209
1.22507
1.50457
1.78027
2.05191
2.31926
2.5821
2.84029
3.09369
3.34224
3.58588
3.82462
4.05848
4.28758
4.51201
4.73195
4.94759
5.15917
5.36695
5.57122
5.77231
5.97056
6.16636
6.36012
6.55225
6.74321
6.93348
7.12352
7.31385
7.50495
7.69736
7.89155
8.08804
8.2873
8.48978
8.69586
8.90592
9.12018
9.33878
9.56167
9.78856
10.019
10.2517
10.4864
10.717
10.9577
11.1289
-7.98679
-7.9912
-7.99869
-8.00613
-8.01238
-8.01764
-8.02225
-8.0264
-8.03026
-8.03398
-8.0377
-8.04154
-8.04558
-8.04991
-8.05458
-8.05967
-8.0652
-8.07123
-8.07778
-8.08488
-8.09255
-8.10082
-8.1097
-8.1192
-8.12934
-8.14013
-8.15157
-8.16367
-8.17644
-8.18988
-8.20398
-8.21876
-8.23421
-8.25033
-8.26711
-8.28455
-8.30264
-8.32139
-8.34078
-8.36081
-8.38146
-8.40272
-8.42457
-8.44698
-8.46994
-8.4934
-8.51734
-8.54174
-8.56653
-8.59169
-8.61717
-8.64291
-8.66886
-8.69495
-8.72111
-8.74726
-8.77332
-8.79919
-8.82478
-8.84997
-8.87467
-8.89873
-8.92205
-8.94449
-8.9659
-8.98614
-9.00505
-9.02247
-9.03824
-9.05218
-9.06411
-9.07384
-9.08117
-9.08592
-9.08787
-9.08681
-9.08253
-9.07481
-9.06342
-9.04814
-9.02872
-9.00495
-8.97658
-8.94337
-8.9051
-8.86151
-8.81237
-8.75745
-8.6965
-8.62933
-8.5557
-8.4754
-8.3882
-8.29392
-8.19236
-8.08334
-7.96669
-7.84227
-7.70995
-7.56961
-7.42115
-7.26451
-7.09963
-6.9265
-6.74512
-6.55552
-6.35777
-6.15197
-5.93826
-5.71679
-5.48778
-5.25146
-5.00811
-4.75804
-4.50158
-4.23913
-3.97109
-3.69791
-3.42005
-3.13801
-2.85231
-2.56348
-2.27206
-1.9786
-1.68367
-1.38781
-1.09156
-0.795453
-0.499984
-0.20563
0.0872173
0.378166
0.666785
0.952598
1.23518
1.5142
1.78933
2.06031
2.3269
2.58893
2.84621
3.09865
3.34615
3.58869
3.82624
4.05887
4.28666
4.50976
4.7283
4.94252
5.15263
5.35891
5.56166
5.76122
5.95792
6.15216
6.34435
6.53493
6.72435
6.91308
7.10162
7.29048
7.48015
7.67117
7.86405
8.0593
8.25741
8.45883
8.66399
8.87323
9.08681
9.30484
9.52725
9.7537
9.98365
10.2159
10.4498
10.6794
10.919
11.0889
-7.99498
-7.99883
-8.0054
-8.0121
-8.01783
-8.02274
-8.0271
-8.03108
-8.03483
-8.03848
-8.04217
-8.046
-8.05005
-8.05441
-8.05912
-8.06424
-8.06983
-8.07591
-8.08251
-8.08966
-8.09739
-8.10572
-8.11466
-8.12422
-8.13443
-8.14528
-8.15679
-8.16896
-8.1818
-8.19531
-8.20949
-8.22435
-8.23988
-8.25609
-8.27297
-8.29052
-8.30873
-8.32761
-8.34714
-8.36732
-8.38813
-8.40956
-8.43158
-8.45417
-8.47731
-8.50095
-8.52507
-8.54962
-8.57458
-8.5999
-8.62553
-8.65142
-8.67751
-8.70373
-8.73001
-8.75626
-8.78241
-8.80836
-8.834
-8.85923
-8.88394
-8.908
-8.9313
-8.95368
-8.97503
-8.99518
-9.01398
-9.03128
-9.0469
-9.06068
-9.07243
-9.08196
-9.08909
-9.09361
-9.09533
-9.09402
-9.08949
-9.0815
-9.06984
-9.05428
-9.03458
-9.01052
-8.98186
-8.94836
-8.90979
-8.8659
-8.81645
-8.76122
-8.69996
-8.63247
-8.55852
-8.47789
-8.39037
-8.29574
-8.19382
-8.08443
-7.9674
-7.84258
-7.70984
-7.56905
-7.42013
-7.26301
-7.09763
-6.92397
-6.74203
-6.55186
-6.3535
-6.14708
-5.93271
-5.71056
-5.48085
-5.24383
-4.99975
-4.74895
-4.49176
-4.22858
-3.95983
-3.68595
-3.40742
-3.12475
-2.83846
-2.54909
-2.25719
-1.96332
-1.66806
-1.37195
-1.07551
-0.779316
-0.48388
-0.189664
0.102942
0.393562
0.681767
0.967079
1.24907
1.52739
1.80173
2.07184
2.33748
2.59846
2.85464
3.10591
3.35216
3.59339
3.82957
4.06079
4.28711
4.50869
4.72569
4.93833
5.14684
5.35151
5.55264
5.75057
5.94565
6.13827
6.32886
6.51786
6.70573
6.89294
7.08
7.26743
7.45574
7.64545
7.83711
8.03123
8.22831
8.42882
8.63319
8.84176
9.0548
9.2724
9.49446
9.72059
9.95021
10.182
10.4154
10.6442
10.8829
11.0522
-8.00396
-8.00722
-8.01283
-8.01866
-8.02374
-8.02814
-8.03208
-8.03573
-8.03921
-8.04266
-8.04619
-8.0499
-8.05386
-8.05814
-8.06281
-8.06792
-8.07349
-8.07957
-8.08618
-8.09336
-8.10111
-8.10947
-8.11844
-8.12804
-8.13828
-8.14917
-8.16072
-8.17293
-8.18582
-8.19938
-8.21362
-8.22855
-8.24416
-8.26045
-8.27742
-8.29507
-8.31339
-8.33239
-8.35204
-8.37234
-8.39327
-8.41482
-8.43696
-8.45966
-8.48289
-8.50662
-8.53082
-8.55544
-8.58045
-8.60581
-8.63146
-8.65735
-8.68343
-8.70963
-8.73586
-8.76206
-8.78812
-8.81395
-8.83946
-8.86454
-8.88907
-8.91293
-8.936
-8.95814
-8.97922
-8.99909
-9.0176
-9.03458
-9.04987
-9.0633
-9.0747
-9.08387
-9.09063
-9.09478
-9.09612
-9.09444
-9.08952
-9.08115
-9.06911
-9.05317
-9.0331
-9.00867
-8.97963
-8.94577
-8.90683
-8.86258
-8.81279
-8.7572
-8.69561
-8.62777
-8.55349
-8.47252
-8.38465
-8.28967
-8.1874
-8.07765
-7.96025
-7.83505
-7.70191
-7.56071
-7.41137
-7.25379
-7.08795
-6.9138
-6.73136
-6.54066
-6.34176
-6.13476
-5.9198
-5.69705
-5.46672
-5.22907
-4.98436
-4.73291
-4.47509
-4.2113
-3.94194
-3.66749
-3.38842
-3.10526
-2.81852
-2.52876
-2.23654
-1.94243
-1.647
-1.35079
-1.05435
-0.758269
-0.463067
-0.169191
0.122964
0.413034
0.700598
0.985178
1.26635
1.54374
1.81707
2.08607
2.35053
2.61027
2.86514
3.11501
3.35983
3.59956
3.83421
4.06383
4.28853
4.50844
4.72377
4.93471
5.14153
5.3445
5.54394
5.74017
5.93359
6.12458
6.31356
6.50098
6.68732
6.87306
7.05871
7.24479
7.43182
7.62035
7.81091
8.00403
8.20023
8.39998
8.60371
8.81179
9.02443
9.24175
9.46358
9.68952
9.91893
10.1505
10.3834
10.6117
10.8495
11.0189
-8.01369
-8.01638
-8.02102
-8.0259
-8.03018
-8.0339
-8.03724
-8.04036
-8.0434
-8.04648
-8.04969
-8.05315
-8.0569
-8.06103
-8.06558
-8.07058
-8.07608
-8.08211
-8.08868
-8.09582
-8.10355
-8.11189
-8.12084
-8.13043
-8.14065
-8.15153
-8.16307
-8.17528
-8.18817
-8.20173
-8.21598
-8.23092
-8.24654
-8.26284
-8.27982
-8.2975
-8.31584
-8.33486
-8.35452
-8.37483
-8.39574
-8.41726
-8.43934
-8.46198
-8.48513
-8.50877
-8.53285
-8.55734
-8.58219
-8.60737
-8.63282
-8.6585
-8.68434
-8.71027
-8.73622
-8.7621
-8.78783
-8.8133
-8.83843
-8.8631
-8.8872
-8.91062
-8.93323
-8.9549
-8.97549
-8.99486
-9.01285
-9.02932
-9.0441
-9.05701
-9.06789
-9.07655
-9.0828
-9.08644
-9.08728
-9.0851
-9.07971
-9.07086
-9.05837
-9.04198
-9.02148
-8.99662
-8.96719
-8.93292
-8.8936
-8.84899
-8.79884
-8.74294
-8.68102
-8.61287
-8.53827
-8.457
-8.36882
-8.27354
-8.17096
-8.0609
-7.94319
-7.81768
-7.68421
-7.54268
-7.39299
-7.23506
-7.06885
-6.89432
-6.71148
-6.52036
-6.32103