/*--------------------------------*- C++ -*----------------------------------*\
| =========                 |                                                 |
| \\      /  F ield         | OpenFOAM: The Open Source CFD Toolbox           |
|  \\    /   O peration     | Version:  2406                                  |
|   \\  /    A nd           | Website:  www.openfoam.com                      |
|    \\/     M anipulation  |                                                 |
\*---------------------------------------------------------------------------*/
FoamFile
{
    version     2.0;
    format      ascii;
    arch        "LSB;label=32;scalar=64";
    class       surfaceScalarField;
    location    "200";
    object      phi;
}
// * * * * * * * * * * * * * * * * * * * * * * * * * * * * * * * * * * * * * //

dimensions      [0 3 -1 0 0 0 0];

oriented        oriented;

internalField   nonuniform List<scalar> 
24170
(
3.11512e-06
7.3289e-08
3.01296e-06
1.0215e-07
2.91749e-06
9.54686e-08
2.82631e-06
9.11757e-08
2.74031e-06
8.60012e-08
2.66279e-06
7.75167e-08
2.59489e-06
6.78957e-08
2.53598e-06
5.89098e-08
2.48494e-06
5.10399e-08
2.44068e-06
4.42603e-08
2.40223e-06
3.84412e-08
2.36879e-06
3.34358e-08
2.33969e-06
2.90974e-08
2.31439e-06
2.53035e-08
2.29258e-06
2.18124e-08
2.27377e-06
1.88041e-08
2.25779e-06
1.59747e-08
1.2632e-08
2.24516e-06
3.46865e-06
2.18854e-08
3.48677e-06
8.40254e-08
3.49345e-06
8.87926e-08
3.49231e-06
9.23038e-08
3.48432e-06
9.39939e-08
3.47071e-06
9.11262e-08
3.45278e-06
8.58234e-08
3.43174e-06
7.99477e-08
3.40869e-06
7.40831e-08
3.38456e-06
6.83881e-08
3.36005e-06
6.29523e-08
3.33566e-06
5.78247e-08
3.31176e-06
5.29884e-08
3.28864e-06
4.84305e-08
3.26646e-06
4.39814e-08
3.24548e-06
3.97869e-08
3.22643e-06
3.50262e-08
2.87714e-08
3.21029e-06
3.66801e-06
1.63918e-08
3.68031e-06
7.17249e-08
3.69e-06
7.90966e-08
3.70002e-06
8.22829e-08
3.70913e-06
8.48838e-08
3.71622e-06
8.40335e-08
3.72118e-06
8.08581e-08
3.72423e-06
7.69022e-08
3.72559e-06
7.27214e-08
3.72552e-06
6.84584e-08
3.72427e-06
6.42017e-08
3.72207e-06
6.00206e-08
3.71913e-06
5.59286e-08
3.71564e-06
5.19144e-08
3.71175e-06
4.78703e-08
3.7078e-06
4.37345e-08
3.70382e-06
3.90089e-08
3.313e-08
3.69946e-06
3.92495e-06
1.6827e-08
3.93556e-06
6.11145e-08
3.94312e-06
7.15378e-08
3.95014e-06
7.52585e-08
3.95682e-06
7.82005e-08
3.96261e-06
7.82398e-08
3.96757e-06
7.5895e-08
3.9719e-06
7.25732e-08
3.97569e-06
6.89315e-08
3.97899e-06
6.51519e-08
3.98187e-06
6.13217e-08
3.98438e-06
5.75077e-08
3.98658e-06
5.37269e-08
3.98854e-06
4.99601e-08
3.99029e-06
4.61163e-08
3.99193e-06
4.20896e-08
3.99332e-06
3.76238e-08
3.24216e-08
3.99403e-06
4.20772e-06
1.62304e-08
4.21609e-06
5.27489e-08
4.22226e-06
6.53669e-08
4.22774e-06
6.97734e-08
4.23318e-06
7.27566e-08
4.23821e-06
7.32109e-08
4.24274e-06
7.13672e-08
4.24686e-06
6.84486e-08
4.25065e-06
6.51391e-08
4.25416e-06
6.16467e-08
4.25742e-06
5.80612e-08
4.26047e-06
5.4449e-08
4.26337e-06
5.08325e-08
4.26613e-06
4.71935e-08
4.26879e-06
4.34601e-08
4.27133e-06
3.95437e-08
4.27365e-06
3.53035e-08
3.06091e-08
4.27546e-06
4.51042e-06
1.48945e-08
4.51713e-06
4.60443e-08
4.52283e-06
5.96589e-08
4.52796e-06
6.46401e-08
4.5331e-06
6.76186e-08
4.53796e-06
6.83518e-08
4.54239e-06
6.69378e-08
4.54644e-06
6.43951e-08
4.55019e-06
6.13859e-08
4.5537e-06
5.81398e-08
4.557e-06
5.47575e-08
4.56014e-06
5.13087e-08
4.56314e-06
4.78239e-08
4.56604e-06
4.42922e-08
4.56884e-06
4.06648e-08
4.5715e-06
3.68801e-08
4.57394e-06
3.28669e-08
2.85956e-08
4.57595e-06
4.83415e-06
1.34664e-08
4.83991e-06
4.02836e-08
4.84554e-06
5.40225e-08
4.85066e-06
5.95219e-08
4.85572e-06
6.25575e-08
4.86055e-06
6.35224e-08
4.86499e-06
6.24915e-08
4.86909e-06
6.03019e-08
4.87289e-06
5.7577e-08
4.87647e-06
5.45642e-08
4.87985e-06
5.13762e-08
4.88307e-06
4.80876e-08
4.88615e-06
4.47376e-08
4.88912e-06
4.13256e-08
4.89196e-06
3.7826e-08
4.89463e-06
3.42039e-08
4.89706e-06
3.04373e-08
2.65528e-08
4.8991e-06
5.18096e-06
1.20906e-08
5.18605e-06
3.5184e-08
5.19158e-06
4.84939e-08
5.19671e-06
5.43883e-08
5.20177e-06
5.74988e-08
5.20665e-06
5.86437e-08
5.21119e-06
5.79462e-08
5.21541e-06
5.60862e-08
5.21935e-06
5.36369e-08
5.22305e-06
5.08567e-08
5.22656e-06
4.78682e-08
5.22989e-06
4.47509e-08
5.23308e-06
4.15521e-08
5.23612e-06
3.82839e-08
5.239e-06
3.49406e-08
5.2417e-06
3.15118e-08
5.24413e-06
2.80058e-08
2.44723e-08
5.24621e-06
5.55268e-06
1.07519e-08
5.55721e-06
3.06534e-08
5.56252e-06
4.31782e-08
5.56764e-06
4.92684e-08
5.57271e-06
5.24234e-08
5.57767e-06
5.36897e-08
5.58234e-06
5.32718e-08
5.58671e-06
5.17153e-08
5.59081e-06
4.95326e-08
5.59468e-06
4.6986e-08
5.59834e-06
4.42052e-08
5.60182e-06
4.12739e-08
5.60512e-06
3.82468e-08
5.60826e-06
3.51484e-08
5.61121e-06
3.19895e-08
5.61394e-06
2.8779e-08
5.6164e-06
2.55418e-08
2.23367e-08
5.61854e-06
5.95107e-06
9.45624e-09
5.95511e-06
2.66116e-08
5.96017e-06
3.81234e-08
5.96524e-06
4.41935e-08
5.97032e-06
4.73434e-08
5.97533e-06
4.86763e-08
5.98012e-06
4.84797e-08
5.98464e-06
4.71928e-08
5.98891e-06
4.52618e-08
5.99295e-06
4.29452e-08
5.99678e-06
4.03776e-08
6.0004e-06
3.76458e-08
6.00384e-06
3.48099e-08
6.00708e-06
3.19051e-08
6.01012e-06
2.89548e-08
6.01291e-06
2.59815e-08
6.01544e-06
2.30179e-08
2.01241e-08
6.01765e-06
6.37804e-06
8.22429e-09
6.38168e-06
2.29775e-08
6.38646e-06
3.33412e-08
6.39146e-06
3.9192e-08
6.39652e-06
4.22779e-08
6.40157e-06
4.36295e-08
6.40645e-06
4.35953e-08
6.4111e-06
4.25386e-08
6.41552e-06
4.08397e-08
6.41972e-06
3.87457e-08
6.42371e-06
3.63932e-08
6.42748e-06
3.38707e-08
6.43105e-06
3.1242e-08
6.4344e-06
2.855e-08
6.43753e-06
2.58269e-08
6.44041e-06
2.31034e-08
6.44301e-06
2.04146e-08
1.78178e-08
6.44531e-06
5.74182e-06
7.23468e-09
5.74462e-06
2.01754e-08
5.74846e-06
2.95085e-08
5.75261e-06
3.50358e-08
5.75687e-06
3.80181e-08
5.76114e-06
3.93537e-08
5.76532e-06
3.94134e-08
5.76934e-06
3.85189e-08
5.77318e-06
3.70002e-08
5.77684e-06
3.50876e-08
5.78031e-06
3.29167e-08
5.78361e-06
3.05764e-08
5.78672e-06
2.81322e-08
5.78963e-06
2.56311e-08
5.79235e-06
2.31102e-08
5.79485e-06
2.06036e-08
5.79712e-06
1.81458e-08
1.57913e-08
5.79914e-06
6.99922e-06
6.17314e-09
7.00219e-06
1.71989e-08
7.00635e-06
2.53479e-08
7.01099e-06
3.03915e-08
7.01583e-06
3.31798e-08
7.02073e-06
3.44518e-08
7.02557e-06
3.45759e-08
7.03025e-06
3.38329e-08
7.03475e-06
3.25004e-08
7.03905e-06
3.07865e-08
7.04314e-06
2.88223e-08
7.04702e-06
2.66953e-08
7.05069e-06
2.44706e-08
7.05412e-06
2.21979e-08
7.05731e-06
1.99165e-08
7.06025e-06
1.7662e-08
7.06293e-06
1.5466e-08
1.33793e-08
7.06534e-06
8.53197e-06
5.04884e-09
8.53509e-06
1.40756e-08
8.53955e-06
2.08893e-08
8.54467e-06
2.52695e-08
8.5501e-06
2.77473e-08
8.55566e-06
2.88892e-08
8.56121e-06
2.90325e-08
8.56662e-06
2.84178e-08
8.57185e-06
2.72702e-08
8.57686e-06
2.57694e-08
8.58165e-06
2.40367e-08
8.58619e-06
2.21554e-08
8.59047e-06
2.01879e-08
8.59448e-06
1.81833e-08
8.59822e-06
1.61805e-08
8.60167e-06
1.42139e-08
8.60482e-06
1.23111e-08
1.05167e-08
8.60768e-06
1.04004e-05
3.87302e-09
1.04036e-05
1.0827e-08
1.04084e-05
1.61581e-08
1.0414e-05
1.96839e-08
1.042e-05
2.17105e-08
1.04262e-05
2.26347e-08
1.04325e-05
2.27361e-08
1.04387e-05
2.22126e-08
1.04448e-05
2.12388e-08
1.04506e-05
1.996e-08
1.04561e-05
1.84817e-08
1.04614e-05
1.6878e-08
1.04664e-05
1.52058e-08
1.04711e-05
1.35092e-08
1.04754e-05
1.18245e-08
1.04795e-05
1.01815e-08
1.04832e-05
8.60298e-09
7.1266e-09
1.04866e-05
1.2678e-05
2.65337e-09
1.26814e-05
7.45108e-09
1.26864e-05
1.11563e-08
1.26924e-05
1.36357e-08
1.26991e-05
1.50498e-08
1.27061e-05
1.56473e-08
1.27132e-05
1.56307e-08
1.27202e-05
1.51485e-08
1.27272e-05
1.43265e-08
1.27338e-05
1.32717e-08
1.27403e-05
1.20659e-08
1.27464e-05
1.07696e-08
1.27521e-05
9.42846e-09
1.27576e-05
8.07915e-09
1.27626e-05
6.75042e-09
1.27674e-05
5.46657e-09
1.27717e-05
4.24351e-09
3.11249e-09
1.27757e-05
1.54545e-05
1.38147e-09
1.5458e-05
3.90489e-09
1.54633e-05
5.82917e-09
1.54699e-05
7.06904e-09
1.54772e-05
7.6968e-09
1.5485e-05
7.84125e-09
1.54931e-05
7.61885e-09
1.55011e-05
7.11969e-09
1.5509e-05
6.41979e-09
1.55167e-05
5.5845e-09
1.55241e-05
4.66589e-09
1.55311e-05
3.70347e-09
1.55378e-05
2.72769e-09
1.55441e-05
1.76276e-09
1.55501e-05
8.27882e-10
1.55556e-05
-6.13065e-11
1.55607e-05
-8.95472e-10
-1.65132e-09
1.55655e-05
1.8839e-05
1.82903e-11
1.88428e-05
6.42968e-11
1.88487e-05
1.20402e-13
1.88559e-05
-2.11901e-10
1.88642e-05
-5.53369e-10
1.8873e-05
-9.95351e-10
1.88822e-05
-1.51365e-09
1.88914e-05
-2.08612e-09
1.89005e-05
-2.69049e-09
1.89094e-05
-3.30717e-09
1.89179e-05
-3.92067e-09
1.89262e-05
-4.51874e-09
1.8934e-05
-5.09134e-09
1.89414e-05
-5.63017e-09
1.89483e-05
-6.12863e-09
1.89549e-05
-6.58119e-09
1.89609e-05
-6.98604e-09
-7.32809e-09
1.89666e-05
2.29649e-05
-1.53719e-09
2.29693e-05
-4.36459e-09
2.29761e-05
-6.76575e-09
2.29846e-05
-8.71077e-09
2.29942e-05
-1.02164e-08
2.30046e-05
-1.13689e-08
2.30154e-05
-1.22579e-08
2.30262e-05
-1.29375e-08
2.3037e-05
-1.34448e-08
2.30475e-05
-1.38149e-08
2.30576e-05
-1.40785e-08
2.30674e-05
-1.42576e-08
2.30766e-05
-1.43674e-08
2.30854e-05
-1.4419e-08
2.30937e-05
-1.4421e-08
2.31015e-05
-1.43792e-08
2.31088e-05
-1.43002e-08
-1.41772e-08
2.31157e-05
1.68119e-05
-2.74022e-09
1.68153e-05
-7.77008e-09
1.68205e-05
-1.19839e-08
1.6827e-05
-1.52274e-08
1.68344e-05
-1.75439e-08
1.68422e-05
-1.91671e-08
1.68502e-05
-2.02906e-08
1.68583e-05
-2.10148e-08
1.68662e-05
-2.14167e-08
1.6874e-05
-2.15769e-08
1.68815e-05
-2.15604e-08
1.68886e-05
-2.14145e-08
1.68954e-05
-2.11714e-08
1.69019e-05
-2.08576e-08
1.69079e-05
-2.04911e-08
1.69136e-05
-2.00863e-08
1.6919e-05
-1.96534e-08
-1.9192e-08
1.6924e-05
1.46357e-05
-3.87391e-09
1.4639e-05
-1.10339e-08
1.4644e-05
-1.70269e-08
1.46502e-05
-2.14284e-08
1.4657e-05
-2.43827e-08
1.46642e-05
-2.63628e-08
1.46716e-05
-2.76443e-08
1.46789e-05
-2.83461e-08
1.46861e-05
-2.85957e-08
1.4693e-05
-2.85238e-08
1.46997e-05
-2.82264e-08
1.47061e-05
-2.77666e-08
1.47121e-05
-2.71926e-08
1.47178e-05
-2.65417e-08
1.47231e-05
-2.58418e-08
1.47281e-05
-2.5112e-08
1.47328e-05
-2.43673e-08
-2.36102e-08
1.47373e-05
1.27412e-05
-4.89866e-09
1.27444e-05
-1.42787e-08
1.27495e-05
-2.21471e-08
1.27556e-05
-2.74795e-08
1.2762e-05
-3.08499e-08
1.27688e-05
-3.31044e-08
1.27756e-05
-3.44881e-08
1.27824e-05
-3.51013e-08
1.27889e-05
-3.51451e-08
1.27952e-05
-3.48109e-08
1.28012e-05
-3.42178e-08
1.28069e-05
-3.34426e-08
1.28122e-05
-3.25461e-08
1.28172e-05
-3.15757e-08
1.2822e-05
-3.05655e-08
1.28264e-05
-2.95376e-08
1.28305e-05
-2.85075e-08
-2.74785e-08
1.28344e-05
1.10917e-05
-5.68081e-09
1.1095e-05
-1.75477e-08
1.11004e-05
-2.75516e-08
1.11064e-05
-3.34691e-08
1.11125e-05
-3.70037e-08
1.11189e-05
-3.94463e-08
1.11252e-05
-4.08559e-08
1.11314e-05
-4.13174e-08
1.11374e-05
-4.11273e-08
1.11431e-05
-4.05222e-08
1.11485e-05
-3.96308e-08
1.11536e-05
-3.85428e-08
1.11584e-05
-3.73326e-08
1.11629e-05
-3.60584e-08
1.11671e-05
-3.4758e-08
1.1171e-05
-3.34579e-08
1.11747e-05
-3.21759e-08
-3.09205e-08
1.11781e-05
9.65564e-06
-6.10663e-09
9.65904e-06
-2.09534e-08
9.66464e-06
-3.3152e-08
9.67044e-06
-3.92669e-08
9.67636e-06
-4.29231e-08
9.68242e-06
-4.55064e-08
9.68836e-06
-4.68054e-08
9.69407e-06
-4.70201e-08
9.6995e-06
-4.65646e-08
9.70467e-06
-4.56864e-08
9.70954e-06
-4.45056e-08
9.71412e-06
-4.31205e-08
9.7184e-06
-4.16178e-08
9.7224e-06
-4.0063e-08
9.72614e-06
-3.8498e-08
9.72963e-06
-3.69495e-08
9.73289e-06
-3.54303e-08
-3.39346e-08
9.7359e-06
8.40494e-06
-5.69847e-09
8.40932e-06
-2.53336e-08
8.41475e-06
-3.85758e-08
8.41986e-06
-4.43822e-08
8.42543e-06
-4.85002e-08
8.4313e-06
-5.13753e-08
8.43703e-06
-5.253e-08
8.44246e-06
-5.2454e-08
8.44759e-06
-5.17021e-08
8.45243e-06
-5.05235e-08
8.45696e-06
-4.90346e-08
8.46118e-06
-4.73445e-08
8.46511e-06
-4.55497e-08
8.46877e-06
-4.37212e-08
8.47217e-06
-4.19033e-08
8.47535e-06
-4.0125e-08
8.47833e-06
-3.84107e-08
-3.677e-08
8.48116e-06
7.31365e-06
-2.06098e-09
7.32071e-06
-3.23969e-08
7.32651e-06
-4.43822e-08
7.33133e-06
-4.91953e-08
7.33671e-06
-5.38847e-08
7.34237e-06
-5.70421e-08
7.34791e-06
-5.80694e-08
7.35323e-06
-5.77692e-08
7.35829e-06
-5.67679e-08
7.36306e-06
-5.52981e-08
7.36752e-06
-5.34933e-08
7.37166e-06
-5.14843e-08
7.37549e-06
-4.93835e-08
7.37904e-06
-4.72666e-08
7.38232e-06
-4.51835e-08
7.38536e-06
-4.3164e-08
7.38816e-06
-4.12189e-08
-3.9297e-08
7.39069e-06
6.36047e-06
7.53614e-09
6.3703e-06
-4.22275e-08
6.37818e-06
-5.22704e-08
6.38525e-06
-5.62632e-08
6.39238e-06
-6.10107e-08
6.39899e-06
-6.36605e-08
6.40499e-06
-6.40627e-08
6.41054e-06
-6.33216e-08
6.41574e-06
-6.19724e-08
6.42059e-06
-6.01498e-08
6.42508e-06
-5.798e-08
6.4292e-06
-5.56042e-08
6.43296e-06
-5.3151e-08
6.43639e-06
-5.06968e-08
6.43951e-06
-4.82999e-08
6.44234e-06
-4.60014e-08
6.44496e-06
-4.38324e-08
-4.18208e-08
6.44748e-06
5.53917e-06
1.38302e-08
5.54752e-06
-5.05802e-08
5.55587e-06
-6.06167e-08
5.56612e-06
-6.65204e-08
5.57732e-06
-7.22147e-08
5.58782e-06
-7.41601e-08
5.59704e-06
-7.32835e-08
5.605e-06
-7.12836e-08
5.61177e-06
-6.87453e-08
5.61743e-06
-6.58094e-08
5.62205e-06
-6.25992e-08
5.62571e-06
-5.92697e-08
5.62852e-06
-5.59561e-08
5.63055e-06
-5.27332e-08
5.63191e-06
-4.96524e-08
5.63269e-06
-4.67828e-08
5.63299e-06
-4.41348e-08
-4.18007e-08
5.63297e-06
4.87157e-06
-3.01351e-08
4.88648e-06
-6.54867e-08
4.89722e-06
-7.13603e-08
4.90599e-06
-7.5299e-08
4.91304e-06
-7.9263e-08
4.91732e-06
-7.84427e-08
4.91816e-06
-7.41189e-08
4.91542e-06
-6.85532e-08
4.90944e-06
-6.27622e-08
4.90072e-06
-5.70876e-08
4.88982e-06
-5.16995e-08
4.87724e-06
-4.66973e-08
4.86345e-06
-4.21629e-08
4.8488e-06
-3.80883e-08
4.83361e-06
-3.44597e-08
4.81812e-06
-3.13006e-08
4.80261e-06
-2.86262e-08
-2.69317e-08
4.78774e-06
4.17254e-06
4.10705e-06
4.03569e-06
3.96039e-06
3.88113e-06
3.80269e-06
3.72857e-06
3.66002e-06
3.59725e-06
3.54017e-06
3.48847e-06
3.44177e-06
3.39961e-06
3.36152e-06
3.32706e-06
3.29576e-06
3.26713e-06
3.2402e-06
1.23787e-08
-1.24139e-08
2.97875e-08
-1.74632e-08
4.57914e-08
-1.60476e-08
5.80232e-08
-1.22756e-08
6.55705e-08
-7.58505e-09
6.82972e-08
-2.76846e-09
6.65811e-08
1.67976e-09
6.11229e-08
5.41524e-09
5.27852e-08
8.29973e-09
4.23184e-08
1.04203e-08
3.0318e-08
1.19596e-08
1.71608e-08
1.31059e-08
3.12764e-09
1.399e-08
-1.17628e-08
1.48391e-08
-2.76006e-08
1.57992e-08
-4.44643e-08
1.68182e-08
-6.24297e-08
1.7933e-08
-8.16349e-08
1.91637e-08
-1.02172e-07
2.05068e-08
-1.24159e-07
2.19466e-08
-1.47648e-07
2.34611e-08
-1.72715e-07
2.50245e-08
-1.99354e-07
2.66098e-08
-2.27587e-07
2.81886e-08
-2.57352e-07
2.97348e-08
-2.88622e-07
3.12245e-08
-3.21289e-07
3.26393e-08
-3.55296e-07
3.39632e-08
-3.90505e-07
3.51831e-08
-4.26832e-07
3.62873e-08
-4.64122e-07
3.72691e-08
-5.02283e-07
3.81258e-08
-5.41161e-07
3.88615e-08
-5.8067e-07
3.94797e-08
-6.20669e-07
3.9987e-08
-6.61082e-07
4.03887e-08
-7.01786e-07
4.06941e-08
-7.4272e-07
4.09111e-08
-7.83782e-07
4.10534e-08
-8.24939e-07
4.11353e-08
-8.66127e-07
4.11791e-08
-9.07357e-07
4.12088e-08
-9.48606e-07
4.12425e-08
-9.89902e-07
4.12772e-08
-1.03122e-06
4.13095e-08
-1.07257e-06
4.13366e-08
-1.11393e-06
4.13589e-08
-1.15532e-06
4.13742e-08
-1.19671e-06
4.1383e-08
-1.23811e-06
4.1383e-08
-1.27949e-06
4.13749e-08
-1.32087e-06
4.13558e-08
-1.36221e-06
4.13262e-08
-1.40352e-06
4.12831e-08
-1.44476e-06
4.12266e-08
-1.48593e-06
4.11526e-08
-1.52701e-06
4.10614e-08
-1.56798e-06
4.0949e-08
-1.60881e-06
4.08156e-08
-1.64949e-06
4.06563e-08
-1.68997e-06
4.04717e-08
-1.73025e-06
4.02574e-08
-1.77026e-06
4.00139e-08
-1.81002e-06
3.97363e-08
-1.84944e-06
3.94252e-08
-1.88854e-06
3.9076e-08
-1.92723e-06
3.86897e-08
-1.9655e-06
3.82618e-08
-2.00329e-06
3.77938e-08
-2.04059e-06
3.72811e-08
-2.07731e-06
3.67255e-08
-2.11344e-06
3.61225e-08
-2.14891e-06
3.54737e-08
-2.1837e-06
3.47748e-08
-2.21773e-06
3.40281e-08
-2.25097e-06
3.32293e-08
-2.28336e-06
3.23811e-08
-2.31485e-06
3.14803e-08
-2.34538e-06
3.05294e-08
-2.37491e-06
2.95239e-08
-2.40338e-06
2.84668e-08
-2.43074e-06
2.73543e-08
-2.45692e-06
2.6189e-08
-2.48189e-06
2.49665e-08
-2.50557e-06
2.36902e-08
-2.52792e-06
2.2356e-08
-2.54887e-06
2.09669e-08
-2.56837e-06
1.95183e-08
-2.58636e-06
1.80095e-08
-2.60276e-06
1.64366e-08
-2.61752e-06
1.47928e-08
-2.63058e-06
1.30728e-08
-2.64184e-06
1.12693e-08
-2.6512e-06
9.37277e-09
-2.65856e-06
7.36719e-09
-2.66379e-06
5.23589e-09
-2.66677e-06
2.98045e-09
-2.66743e-06
6.67827e-10
-2.66595e-06
-1.48465e-09
-2.66251e-06
-3.43719e-09
-2.65717e-06
-5.33938e-09
-2.64994e-06
-7.2351e-09
-2.64081e-06
-9.14189e-09
-2.62975e-06
-1.1063e-08
-2.61676e-06
-1.29954e-08
-2.60182e-06
-1.4937e-08
-2.58493e-06
-1.68827e-08
-2.56609e-06
-1.88293e-08
-2.54531e-06
-2.07712e-08
-2.52258e-06
-2.27046e-08
-2.49793e-06
-2.46238e-08
-2.47138e-06
-2.65238e-08
-2.44296e-06
-2.83992e-08
-2.41268e-06
-3.02439e-08
-2.38059e-06
-3.2053e-08
-2.34674e-06
-3.38199e-08
-2.31116e-06
-3.55402e-08
-2.27392e-06
-3.72068e-08
-2.23507e-06
-3.88152e-08
-2.19468e-06
-4.03576e-08
-2.15281e-06
-4.18299e-08
-2.10953e-06
-4.32249e-08
-2.06494e-06
-4.45422e-08
-2.01912e-06
-4.5775e-08
-1.97216e-06
-4.69273e-08
-1.92413e-06
-4.79981e-08
-1.87512e-06
-4.8994e-08
-1.82523e-06
-4.98888e-08
-1.77456e-06
-5.06828e-08
-1.7232e-06
-5.13825e-08
-1.67126e-06
-5.19903e-08
-1.61882e-06
-5.24955e-08
-1.566e-06
-5.29001e-08
-1.51288e-06
-5.31998e-08
-1.45959e-06
-5.33957e-08
-1.4062e-06
-5.34868e-08
-1.35282e-06
-5.34729e-08
-1.29956e-06
-5.33557e-08
-1.24649e-06
-5.31349e-08
-1.19372e-06
-5.28206e-08
-1.14132e-06
-5.24183e-08
-1.08939e-06
-5.194e-08
-1.03799e-06
-5.13897e-08
-9.87192e-07
-5.07757e-08
-9.37054e-07
-5.00999e-08
-8.87626e-07
-4.93734e-08
-8.38955e-07
-4.85994e-08
-7.91075e-07
-4.77911e-08
-7.44014e-07
-4.69527e-08
-6.97786e-07
-4.60997e-08
-6.524e-07
-4.52363e-08
-6.07849e-07
-4.4378e-08
-5.64124e-07
-4.35308e-08
-5.21192e-07
-4.27133e-08
-4.79022e-07
-4.19303e-08
-4.3756e-07
-4.11983e-08
-3.96754e-07
-4.05248e-08
-3.56522e-07
-3.99284e-08
-3.16792e-07
-3.94112e-08
-2.77463e-07
-3.89919e-08
-2.38434e-07
-3.86805e-08
-1.99586e-07
-3.84828e-08
-1.60813e-07
-3.84018e-08
-1.21924e-07
-3.85024e-08
-8.28044e-08
-3.87333e-08
-4.34034e-08
-3.90037e-08
-3.77948e-09
-3.92318e-08
3.58585e-08
-3.92399e-08
7.54875e-08
-3.9249e-08
1.15639e-07
-3.97774e-08
1.56894e-07
-4.09047e-08
1.99716e-07
-4.24778e-08
2.44402e-07
-4.437e-08
2.91162e-07
-4.64537e-08
3.40013e-07
-4.85772e-08
3.90694e-07
-5.04221e-08
4.4235e-07
-5.14328e-08
4.92494e-07
-4.99392e-08
5.35933e-07
-4.3267e-08
-1.31532e-09
5.37407e-07
1.40672e-08
-2.65139e-08
2.30777e-08
-2.65147e-08
2.65342e-08
-1.95304e-08
2.59152e-08
-1.16793e-08
2.22177e-08
-3.90644e-09
1.59725e-08
3.4571e-09
7.45484e-09
1.01799e-08
-3.25459e-09
1.61053e-08
-1.61398e-08
2.11676e-08
-3.11482e-08
2.54097e-08
-4.81687e-08
2.89632e-08
-6.70847e-08
3.20036e-08
-8.78184e-08
3.47077e-08
-1.10234e-07
3.72368e-08
-1.34166e-07
3.97171e-08
-1.59592e-07
4.22274e-08
-1.86485e-07
4.48129e-08
-2.14824e-07
4.7487e-08
-2.44567e-07
5.02371e-08
-2.7567e-07
5.30342e-08
-3.08062e-07
5.584e-08
-3.41667e-07
5.86129e-08
-3.76382e-07
6.13112e-08
-4.12108e-07
6.38961e-08
-4.48722e-07
6.63336e-08
-4.86111e-07
6.85956e-08
-5.24148e-07
7.06616e-08
-5.62723e-07
7.25192e-08
-6.01717e-07
7.41623e-08
-6.41036e-07
7.55884e-08
-6.80578e-07
7.67985e-08
-7.20269e-07
7.78008e-08
-7.60029e-07
7.86095e-08
-7.99805e-07
7.92418e-08
-8.39543e-07
7.97162e-08
-8.79218e-07
8.00518e-08
-9.18801e-07
8.02686e-08
-9.58287e-07
8.0386e-08
-9.97666e-07
8.04244e-08
-1.03695e-06
8.04042e-08
-1.07612e-06
8.03465e-08
-1.11519e-06
8.02682e-08
-1.15413e-06
8.01792e-08
-1.19295e-06
8.00816e-08
-1.23162e-06
7.99756e-08
-1.27015e-06
7.98611e-08
-1.30853e-06
7.97375e-08
-1.34677e-06
7.96032e-08
-1.38485e-06
7.94567e-08
-1.42277e-06
7.92956e-08
-1.46052e-06
7.91175e-08
-1.49809e-06
7.89194e-08
-1.53548e-06
7.86989e-08
-1.57266e-06
7.84523e-08
-1.60961e-06
7.81764e-08
-1.64634e-06
7.78672e-08
-1.68281e-06
7.75215e-08
-1.71901e-06
7.71351e-08
-1.75491e-06
7.67044e-08
-1.79049e-06
7.62253e-08
-1.82572e-06
7.56946e-08
-1.86058e-06
7.51082e-08
-1.89504e-06
7.4463e-08
-1.92907e-06
7.37548e-08
-1.96263e-06
7.29809e-08
-1.9957e-06
7.21374e-08
-2.02823e-06
7.1222e-08
-2.06021e-06
7.02313e-08
-2.09158e-06
6.91634e-08
-2.12232e-06
6.80151e-08
-2.15238e-06
6.67847e-08
-2.18173e-06
6.54694e-08
-2.21032e-06
6.40678e-08
-2.23813e-06
6.2577e-08
-2.2651e-06
6.09965e-08
-2.2912e-06
5.93239e-08
-2.31638e-06
5.75593e-08
-2.34061e-06
5.57007e-08
-2.36383e-06
5.3748e-08
-2.38601e-06
5.16991e-08
-2.4071e-06
4.95543e-08
-2.42705e-06
4.73117e-08
-2.44583e-06
4.49717e-08
-2.4634e-06
4.25323e-08
-2.4797e-06
3.99946e-08
-2.4947e-06
3.73571e-08
-2.50834e-06
3.46206e-08
-2.5206e-06
3.17832e-08
-2.53141e-06
2.88448e-08
-2.54076e-06
2.58025e-08
-2.5486e-06
2.26545e-08
-2.55492e-06
1.93997e-08
-2.55968e-06
1.60389e-08
-2.56288e-06
1.2576e-08
-2.56453e-06
9.02081e-09
-2.56469e-06
5.3982e-09
-2.56346e-06
1.75037e-09
-2.56091e-06
-1.87892e-09
-2.5569e-06
-5.50273e-09
-2.55118e-06
-9.16004e-09
-2.54366e-06
-1.28559e-08
-2.53431e-06
-1.65869e-08
-2.52311e-06
-2.03526e-08
-2.51003e-06
-2.41488e-08
-2.49506e-06
-2.79689e-08
-2.47819e-06
-3.18056e-08
-2.45942e-06
-3.56502e-08
-2.43874e-06
-3.94944e-08
-2.41618e-06
-4.33285e-08
-2.39173e-06
-4.71431e-08
-2.36541e-06
-5.09278e-08
-2.33724e-06
-5.46721e-08
-2.30726e-06
-5.8365e-08
-2.27549e-06
-6.19952e-08
-2.24197e-06
-6.55514e-08
-2.20674e-06
-6.90223e-08
-2.16986e-06
-7.23966e-08
-2.13138e-06
-7.56629e-08
-2.09137e-06
-7.88095e-08
-2.04988e-06
-8.18246e-08
-2.00699e-06
-8.46972e-08
-1.96276e-06
-8.7417e-08
-1.9173e-06
-8.9977e-08
-1.87067e-06
-9.23696e-08
-1.82298e-06
-9.45927e-08
-1.77432e-06
-9.66476e-08
-1.72476e-06
-9.85408e-08
-1.67441e-06
-1.00243e-07
-1.62335e-06
-1.01745e-07
-1.57169e-06
-1.03059e-07
-1.51952e-06
-1.04186e-07
-1.46694e-06
-1.05112e-07
-1.41404e-06
-1.05839e-07
-1.36093e-06
-1.0636e-07
-1.3077e-06
-1.06677e-07
-1.25445e-06
-1.06789e-07
-1.20128e-06
-1.06699e-07
-1.14827e-06
-1.06408e-07
-1.09552e-06
-1.05924e-07
-1.0431e-06
-1.05258e-07
-9.91106e-07
-1.04426e-07
-9.39605e-07
-1.03441e-07
-8.88669e-07
-1.02321e-07
-8.38354e-07
-1.01074e-07
-7.88716e-07
-9.97179e-08
-7.39794e-07
-9.82623e-08
-6.91626e-07
-9.67294e-08
-6.44236e-07
-9.51296e-08
-5.97643e-07
-9.34891e-08
-5.5185e-07
-9.1821e-08
-5.06854e-07
-9.01539e-08
-4.62637e-07
-8.84994e-08
-4.19177e-07
-8.68901e-08
-3.76429e-07
-8.53415e-08
-3.34349e-07
-8.38868e-08
-2.92867e-07
-8.25377e-08
-2.51913e-07
-8.13329e-08
-2.11392e-07
-8.02867e-08
-1.71207e-07
-7.94318e-08
-1.31236e-07
-7.87827e-08
-9.13515e-08
-7.83852e-08
-5.14069e-08
-7.82341e-08
-1.12707e-08
-7.83474e-08
2.91414e-08
-7.87129e-08
6.9933e-08
-7.93296e-08
1.11378e-07
-8.02469e-08
1.53812e-07
-8.14725e-08
1.97659e-07
-8.28903e-08
2.43221e-07
-8.46237e-08
2.90591e-07
-8.69579e-08
3.3987e-07
-9.00037e-08
3.91238e-07
-9.36673e-08
4.44823e-07
-9.77874e-08
5.00661e-07
-1.02128e-07
5.58586e-07
-1.06353e-07
6.18173e-07
-1.09868e-07
6.78351e-07
-1.11486e-07
7.37571e-07
-1.09046e-07
7.90613e-07
-9.62112e-08
-5.15421e-08
8.40927e-07
5.29685e-09
-3.18367e-08
3.58307e-09
-2.48298e-08
-1.97665e-09
-1.39881e-08
-1.00354e-08
-3.63509e-09
-1.99597e-08
6.00629e-09
-3.14582e-08
1.49441e-08
-4.44381e-08
2.31496e-08
-5.89265e-08
3.05828e-08
-7.49998e-08
3.7231e-08
-9.27347e-08
4.31337e-08
-1.12166e-07
4.83848e-08
-1.33287e-07
5.31144e-08
-1.56052e-07
5.74629e-08
-1.80385e-07
6.15596e-08
-2.06185e-07
6.55085e-08
-2.33349e-07
6.93814e-08
-2.61761e-07
7.32167e-08
-2.91306e-07
7.70233e-08
-3.21864e-07
8.07872e-08
-3.53318e-07
8.44794e-08
-3.85548e-07
8.80627e-08
-4.18443e-07
9.1498e-08
-4.51888e-07
9.47483e-08
-4.85783e-07
9.77816e-08
-5.20031e-07
1.00573e-07
-5.5455e-07
1.03104e-07
-5.89261e-07
1.05363e-07
-6.24098e-07
1.07345e-07
-6.58997e-07
1.09052e-07
-6.93915e-07
1.10495e-07
-7.28817e-07
1.11692e-07
-7.6369e-07
1.12663e-07
-7.98516e-07
1.13428e-07
-8.33293e-07
1.14009e-07
-8.68014e-07
1.1443e-07
-9.02685e-07
1.14714e-07
-9.37304e-07
1.14882e-07
-9.71882e-07
1.14956e-07
-1.00642e-06
1.14955e-07
-1.04092e-06
1.14899e-07
-1.07538e-06
1.14802e-07
-1.1098e-06
1.14677e-07
-1.14416e-06
1.14532e-07
-1.17845e-06
1.14371e-07
-1.21268e-06
1.14195e-07
-1.24682e-06
1.14006e-07
-1.28089e-06
1.13801e-07
-1.31487e-06
1.13579e-07
-1.34876e-06
1.13338e-07
-1.38254e-06
1.13074e-07
-1.41621e-06
1.12784e-07
-1.44976e-06
1.12463e-07
-1.48317e-06
1.12108e-07
-1.51644e-06
1.11712e-07
-1.54954e-06
1.11272e-07
-1.58246e-06
1.10782e-07
-1.61519e-06
1.10238e-07
-1.64769e-06
1.09633e-07
-1.67996e-06
1.08962e-07
-1.71196e-06
1.08221e-07
-1.74368e-06
1.07404e-07
-1.77508e-06
1.06506e-07
-1.80615e-06
1.05522e-07
-1.83685e-06
1.04447e-07
-1.86715e-06
1.03277e-07
-1.89702e-06
1.02007e-07
-1.92644e-06
1.00633e-07
-1.95536e-06
9.91509e-08
-1.98376e-06
9.75572e-08
-2.0116e-06
9.58484e-08
-2.03883e-06
9.40211e-08
-2.06544e-06
9.20721e-08
-2.09137e-06
8.99987e-08
-2.11659e-06
8.77981e-08
-2.14107e-06
8.5468e-08
-2.16475e-06
8.30063e-08
-2.1876e-06
8.04115e-08
-2.20959e-06
7.7682e-08
-2.23066e-06
7.48164e-08
-2.25077e-06
7.18131e-08
-2.26989e-06
6.86715e-08
-2.28797e-06
6.53903e-08
-2.30496e-06
6.1969e-08
-2.32084e-06
5.8407e-08
-2.33554e-06
5.47046e-08
-2.34905e-06
5.08616e-08
-2.3613e-06
4.68788e-08
-2.37227e-06
4.27566e-08
-2.38191e-06
3.84956e-08
-2.39019e-06
3.40968e-08
-2.39708e-06
2.95612e-08
-2.40257e-06
2.48924e-08
-2.40663e-06
2.00967e-08
-2.40923e-06
1.51838e-08
-2.41038e-06
1.01696e-08
-2.41006e-06
5.07629e-09
-2.40824e-06
-7.24416e-11
-2.40485e-06
-5.26797e-09
-2.39982e-06
-1.05327e-08
-2.3931e-06
-1.58845e-08
-2.38464e-06
-2.13148e-08
-2.37442e-06
-2.68129e-08
-2.36241e-06
-3.23694e-08
-2.34859e-06
-3.79733e-08
-2.33295e-06
-4.3614e-08
-2.31547e-06
-4.92786e-08
-2.29617e-06
-5.49549e-08
-2.27503e-06
-6.06292e-08
-2.25206e-06
-6.62875e-08
-2.22728e-06
-7.1915e-08
-2.2007e-06
-7.74964e-08
-2.17234e-06
-8.30159e-08
-2.14224e-06
-8.84568e-08
-2.11042e-06
-9.38026e-08
-2.07692e-06
-9.90361e-08
-2.04178e-06
-1.04141e-07
-2.00506e-06
-1.09099e-07
-1.96682e-06
-1.13895e-07
-1.9271e-06
-1.1851e-07
-1.88598e-06
-1.22928e-07
-1.84353e-06
-1.27133e-07
-1.79981e-06
-1.3111e-07
-1.75492e-06
-1.34846e-07
-1.70894e-06
-1.38334e-07
-1.66195e-06
-1.41563e-07
-1.61405e-06
-1.44535e-07
-1.56533e-06
-1.47255e-07
-1.51587e-06
-1.49701e-07
-1.46577e-06
-1.51852e-07
-1.41512e-06
-1.53721e-07
-1.36401e-06
-1.55309e-07
-1.31254e-06
-1.56607e-07
-1.2608e-06
-1.57609e-07
-1.20888e-06
-1.58312e-07
-1.15687e-06
-1.58714e-07
-1.10488e-06
-1.58819e-07
-1.05299e-06
-1.58629e-07
-1.00127e-06
-1.58152e-07
-9.49821e-07
-1.57398e-07
-8.9871e-07
-1.56383e-07
-8.48013e-07
-1.55128e-07
-7.97802e-07
-1.53656e-07
-7.48134e-07
-1.51986e-07
-6.99063e-07
-1.5014e-07
-6.50631e-07
-1.48138e-07
-6.02876e-07
-1.46004e-07
-5.55822e-07
-1.43764e-07
-5.09488e-07
-1.41442e-07
-4.6388e-07
-1.39069e-07
-4.18996e-07
-1.36675e-07
-3.74821e-07
-1.34292e-07
-3.31331e-07
-1.31949e-07
-2.8849e-07
-1.29684e-07
-2.46251e-07
-1.27532e-07
-2.04552e-07
-1.25531e-07
-1.63322e-07
-1.23711e-07
-1.22474e-07
-1.22119e-07
-8.19108e-08
-1.20789e-07
-4.15174e-08
-1.19758e-07
-1.17833e-09
-1.19057e-07
3.92255e-08
-1.1872e-07
7.9837e-08
-1.18779e-07
1.20846e-07
-1.19288e-07
1.62458e-07
-1.20261e-07
2.04902e-07
-1.21708e-07
2.48393e-07
-1.23676e-07
2.93169e-07
-1.26186e-07
3.39547e-07
-1.29209e-07
3.87811e-07
-1.32829e-07
4.38115e-07
-1.37205e-07
4.90563e-07
-1.42396e-07
5.45259e-07
-1.48311e-07
6.02259e-07
-1.54736e-07
6.61525e-07
-1.61345e-07
7.2286e-07
-1.6764e-07
7.85835e-07
-1.728e-07
8.49665e-07
-1.75276e-07
9.13177e-07
-1.72521e-07
9.74878e-07
-1.57878e-07
-1.17132e-07
1.0405e-06
-4.59677e-09
-2.72614e-08
-1.43478e-08
-1.51006e-08
-2.60189e-08
-2.32989e-09
-3.89224e-08
9.25781e-09
-5.28339e-08
1.99092e-08
-6.76908e-08
2.97924e-08
-8.35151e-08
3.89662e-08
-1.00383e-07
4.74423e-08
-1.18391e-07
5.52316e-08
-1.37634e-07
6.2368e-08
-1.58171e-07
6.89144e-08
-1.80021e-07
7.49568e-08
-2.03157e-07
8.05911e-08
-2.27513e-07
8.59082e-08
-2.52994e-07
9.09829e-08
-2.79487e-07
9.58672e-08
-3.06866e-07
1.00589e-07
-3.35005e-07
1.05155e-07
-3.63778e-07
1.09555e-07
-3.93072e-07
1.13766e-07
-4.22777e-07
1.17763e-07
-4.52802e-07
1.21516e-07
-4.83062e-07
1.25002e-07
-5.13489e-07
1.28202e-07
-5.44022e-07
1.31101e-07
-5.74619e-07
1.33693e-07
-6.0524e-07
1.35978e-07
-6.35866e-07
1.37963e-07
-6.66481e-07
1.39661e-07
-6.97084e-07
1.4109e-07
-7.27671e-07
1.42272e-07
-7.58246e-07
1.43231e-07
-7.88813e-07
1.43989e-07
-8.19382e-07
1.4457e-07
-8.49957e-07
1.44999e-07
-8.80548e-07
1.45298e-07
-9.1116e-07
1.45488e-07
-9.41799e-07
1.45588e-07
-9.72466e-07
1.45616e-07
-1.00316e-06
1.45587e-07
-1.03388e-06
1.45514e-07
-1.06461e-06
1.45405e-07
-1.09535e-06
1.45268e-07
-1.12609e-06
1.45107e-07
-1.15683e-06
1.44924e-07
-1.18755e-06
1.4472e-07
-1.21824e-06
1.44494e-07
-1.24891e-06
1.44242e-07
-1.27953e-06
1.43961e-07
-1.31011e-06
1.43648e-07
-1.34062e-06
1.43297e-07
-1.37107e-06
1.42904e-07
-1.40143e-06
1.42462e-07
-1.43168e-06
1.41966e-07
-1.46182e-06
1.41409e-07
-1.49183e-06
1.40786e-07
-1.52169e-06
1.40089e-07
-1.55137e-06
1.39312e-07
-1.58086e-06
1.38448e-07
-1.61014e-06
1.37491e-07
-1.63917e-06
1.36434e-07
-1.66794e-06
1.3527e-07
-1.69642e-06
1.33995e-07
-1.72458e-06
1.32601e-07
-1.75239e-06
1.31083e-07
-1.77982e-06
1.29435e-07
-1.80685e-06
1.27651e-07
-1.83343e-06
1.25728e-07
-1.85953e-06
1.23659e-07
-1.88513e-06
1.21441e-07
-1.91018e-06
1.19069e-07
-1.93464e-06
1.16539e-07
-1.95849e-06
1.13848e-07
-1.98169e-06
1.10991e-07
-2.00419e-06
1.07967e-07
-2.02595e-06
1.04771e-07
-2.04695e-06
1.01403e-07
-2.06712e-06
9.78599e-08
-2.08645e-06
9.41398e-08
-2.10487e-06
9.02411e-08
-2.12237e-06
8.61628e-08
-2.13888e-06
8.19038e-08
-2.15437e-06
7.74636e-08
-2.16881e-06
7.28419e-08
-2.18214e-06
6.8039e-08
-2.19433e-06
6.30557e-08
-2.20534e-06
5.78933e-08
-2.21513e-06
5.25533e-08
-2.22367e-06
4.70381e-08
-2.23091e-06
4.135e-08
-2.23684e-06
3.54929e-08
-2.24142e-06
2.94721e-08
-2.24461e-06
2.32959e-08
-2.24641e-06
1.6975e-08
-2.24676e-06
1.05232e-08
-2.24564e-06
3.95609e-09
-2.243e-06
-2.71446e-09
-2.23879e-06
-9.48736e-09
-2.23295e-06
-1.63728e-08
-2.22546e-06
-2.33742e-08
-2.2163e-06
-3.04823e-08
-2.20543e-06
-3.76832e-08
-2.19284e-06
-4.49634e-08
-2.17851e-06
-5.23073e-08
-2.16243e-06