/*--------------------------------*- C++ -*----------------------------------*\
| =========                 |                                                 |
| \\      /  F ield         | OpenFOAM: The Open Source CFD Toolbox           |
|  \\    /   O peration     | Version:  2406                                  |
|   \\  /    A nd           | Website:  www.openfoam.com                      |
|    \\/     M anipulation  |                                                 |
\*---------------------------------------------------------------------------*/
FoamFile
{
    version     2.0;
    format      ascii;
    arch        "LSB;label=32;scalar=64";
    class       volVectorField;
    location    "200";
    object      U;
}
// * * * * * * * * * * * * * * * * * * * * * * * * * * * * * * * * * * * * * //

dimensions      [0 1 -1 0 0 0 0];

internalField   nonuniform List<vector> 
12225
(
(9.84118 -0.956372 0)
(9.59253 -0.887946 0)
(9.31755 -0.594491 0)
(9.01471 -0.370011 0)
(8.72578 -0.225977 0)
(8.46714 -0.137868 0)
(8.24003 -0.0844852 0)
(8.04173 -0.0516292 0)
(7.86978 -0.0312314 0)
(7.72074 -0.0185979 0)
(7.59162 -0.0106563 0)
(7.4793 -0.00571894 0)
(7.3816 -0.00271709 0)
(7.29655 -0.00100774 0)
(7.22248 -0.000127666 0)
(7.16036 -0.000496778 0)
(7.1007 0.00257069 0)
(7.07267 -0.0177015 0)
(10.0722 0.255857 0)
(10.1867 0.418355 0)
(10.2285 0.384144 0)
(10.2296 0.310408 0)
(10.2114 0.245686 0)
(10.1794 0.195439 0)
(10.1334 0.157682 0)
(10.0759 0.129674 0)
(10.0105 0.108825 0)
(9.94086 0.0930933 0)
(9.86925 0.0809189 0)
(9.79745 0.0713069 0)
(9.72652 0.0635089 0)
(9.6576 0.0570522 0)
(9.59109 0.0512933 0)
(9.52794 0.0466815 0)
(9.46872 0.0401841 0)
(9.41541 0.0402581 0)
(10.0032 0.0599583 0)
(10.0309 0.0482997 0)
(10.0614 0.0100055 0)
(10.0897 5.35141e-06 0)
(10.1151 0.00817109 0)
(10.1376 0.0194279 0)
(10.1547 0.0290174 0)
(10.1657 0.0365022 0)
(10.1715 0.0420621 0)
(10.173 0.0459164 0)
(10.1711 0.048379 0)
(10.1663 0.0497454 0)
(10.1591 0.050252 0)
(10.1503 0.050049 0)
(10.1401 0.0491706 0)
(10.1292 0.0476277 0)
(10.1183 0.0451301 0)
(10.1063 0.0403345 0)
(9.99715 0.00991889 0)
(10.009 0.0260985 0)
(10.0342 0.0383084 0)
(10.0554 0.0533958 0)
(10.0721 0.0649258 0)
(10.0875 0.0702658 0)
(10.1015 0.0714173 0)
(10.1134 0.0706608 0)
(10.1236 0.0690811 0)
(10.1326 0.0671048 0)
(10.1404 0.0649314 0)
(10.1473 0.0626835 0)
(10.1532 0.0603813 0)
(10.1585 0.0580044 0)
(10.1632 0.0554161 0)
(10.1675 0.0524769 0)
(10.1713 0.0487024 0)
(10.1743 0.0429952 0)
(9.99907 0.00681101 0)
(10.0082 0.0343074 0)
(10.0279 0.0483583 0)
(10.0436 0.0549002 0)
(10.0558 0.0583665 0)
(10.0678 0.0595465 0)
(10.0793 0.0593143 0)
(10.0897 0.0585699 0)
(10.0991 0.0576742 0)
(10.1077 0.0566619 0)
(10.1157 0.0555247 0)
(10.1232 0.0542575 0)
(10.1303 0.0528368 0)
(10.137 0.0512059 0)
(10.1434 0.0492459 0)
(10.1496 0.0468009 0)
(10.1554 0.0435462 0)
(10.1605 0.0391755 0)
(10.0002 0.00924493 0)
(10.0079 0.0334138 0)
(10.0236 0.0440803 0)
(10.0369 0.0484073 0)
(10.0478 0.0518669 0)
(10.0585 0.0542627 0)
(10.069 0.0552925 0)
(10.0785 0.0554533 0)
(10.0871 0.0551379 0)
(10.0951 0.0544771 0)
(10.1026 0.0535246 0)
(10.1098 0.052323 0)
(10.1166 0.0508832 0)
(10.1231 0.0491758 0)
(10.1294 0.0471158 0)
(10.1355 0.0445853 0)
(10.1412 0.0414144 0)
(10.1462 0.0374829 0)
(10.0003 0.00912712 0)
(10.007 0.0287617 0)
(10.0201 0.0388986 0)
(10.0322 0.0440322 0)
(10.0425 0.048133 0)
(10.0525 0.050934 0)
(10.0622 0.0521766 0)
(10.0711 0.0524086 0)
(10.0793 0.0520936 0)
(10.0869 0.0514065 0)
(10.094 0.0504172 0)
(10.1009 0.0491706 0)
(10.1074 0.0476821 0)
(10.1136 0.0459259 0)
(10.1196 0.0438387 0)
(10.1254 0.0413349 0)
(10.1307 0.0383246 0)
(10.1354 0.0347716 0)
(10.0004 0.00814605 0)
(10.006 0.0247144 0)
(10.0171 0.0348884 0)
(10.0283 0.040534 0)
(10.0381 0.0446107 0)
(10.0475 0.0473226 0)
(10.0567 0.0485994 0)
(10.0652 0.0489124 0)
(10.073 0.0486744 0)
(10.0804 0.0480522 0)
(10.0873 0.0471141 0)
(10.0939 0.0459022 0)
(10.1002 0.0444348 0)
(10.1062 0.0426947 0)
(10.112 0.0406413 0)
(10.1174 0.0382216 0)
(10.1223 0.0353988 0)
(10.1268 0.032192 0)
(10.0004 0.00721094 0)
(10.0052 0.0215211 0)
(10.0146 0.0312728 0)
(10.0248 0.0369521 0)
(10.0341 0.0408483 0)
(10.0429 0.0434746 0)
(10.0516 0.0448356 0)
(10.0598 0.0452739 0)
(10.0675 0.0451375 0)
(10.0746 0.044592 0)
(10.0814 0.0437107 0)
(10.0878 0.0425383 0)
(10.0939 0.0410993 0)
(10.0997 0.0393893 0)
(10.1052 0.0373891 0)
(10.1104 0.0350745 0)
(10.1151 0.0324427 0)
(10.1193 0.0295421 0)
(10.0004 0.00637223 0)
(10.0045 0.0187476 0)
(10.0125 0.0277506 0)
(10.0216 0.0332901 0)
(10.0303 0.0370357 0)
(10.0387 0.0395863 0)
(10.0469 0.0410002 0)
(10.0548 0.0415284 0)
(10.0622 0.0414673 0)
(10.0692 0.0409823 0)
(10.0758 0.0401513 0)
(10.0821 0.039022 0)
(10.088 0.0376241 0)
(10.0936 0.0359653 0)
(10.0989 0.0340435 0)
(10.1038 0.0318571 0)
(10.1083 0.0294226 0)
(10.1123 0.0268011 0)
(10.0004 0.00558263 0)
(10.0039 0.0162505 0)
(10.0107 0.0243881 0)
(10.0189 0.0296793 0)
(10.0269 0.0332541 0)
(10.0348 0.0356871 0)
(10.0426 0.0370919 0)
(10.0501 0.0376647 0)
(10.0573 0.0376533 0)
(10.064 0.0372156 0)
(10.0704 0.0364319 0)
(10.0765 0.0353512 0)
(10.0823 0.0340072 0)
(10.0877 0.032418 0)
(10.0928 0.0305945 0)
(10.0975 0.0285506 0)
(10.1018 0.0263132 0)
(10.1057 0.0239469 0)
(10.0003 0.00487805 0)
(10.0034 0.0141501 0)
(10.0093 0.021463 0)
(10.0167 0.0264316 0)
(10.0242 0.0298051 0)
(10.0316 0.0320933 0)
(10.039 0.0334464 0)
(10.0462 0.0340273 0)
(10.053 0.034042 0)
(10.0595 0.0336366 0)
(10.0658 0.0328915 0)
(10.0717 0.0318569 0)
(10.0772 0.0305698 0)
(10.0825 0.0290554 0)
(10.0874 0.0273335 0)
(10.092 0.0254271 0)
(10.0961 0.023367 0)
(10.0999 0.0212174 0)
(10.0003 0.00421728 0)
(10.003 0.0122246 0)
(10.0082 0.0187004 0)
(10.0148 0.0232646 0)
(10.0217 0.0263977 0)
(10.0287 0.0285178 0)
(10.0357 0.0297892 0)
(10.0425 0.0303524 0)
(10.0491 0.030377 0)
(10.0554 0.0299945 0)
(10.0614 0.0292837 0)
(10.0671 0.0282958 0)
(10.0725 0.02707 0)
(10.0775 0.0256362 0)
(10.0823 0.0240204 0)
(10.0867 0.0222509 0)
(10.0907 0.0203593 0)
(10.0944 0.0184083 0)
(10.0003 0.0035289 0)
(10.0026 0.0102175 0)
(10.0071 0.0157366 0)
(10.0129 0.0197579 0)
(10.0193 0.0225562 0)
(10.0258 0.0244438 0)
(10.0323 0.0255808 0)
(10.0387 0.0260879 0)
(10.045 0.0260998 0)
(10.051 0.0257292 0)
(10.0568 0.0250506 0)
(10.0622 0.0241151 0)
(10.0674 0.0229624 0)
(10.0723 0.0216256 0)
(10.0768 0.0201342 0)
(10.081 0.0185191 0)
(10.0849 0.0168106 0)
(10.0885 0.0150674 0)
(10.0002 0.00280916 0)
(10.0022 0.00812496 0)
(10.006 0.0125819 0)
(10.0112 0.0159196 0)
(10.0169 0.0182705 0)
(10.0229 0.0198455 0)
(10.0289 0.0207828 0)
(10.035 0.0211833 0)
(10.0409 0.0211499 0)
(10.0466 0.0207738 0)
(10.0521 0.0201218 0)
(10.0573 0.0192421 0)
(10.0622 0.0181733 0)
(10.0669 0.0169487 0)
(10.0712 0.0155986 0)
(10.0753 0.0141531 0)
(10.079 0.0126394 0)
(10.0824 0.01111 0)
(10.0002 0.00205839 0)
(10.0019 0.00594988 0)
(10.0052 0.00924685 0)
(10.0097 0.0117585 0)
(10.0148 0.0135335 0)
(10.0202 0.0146984 0)
(10.0258 0.0153567 0)
(10.0314 0.0155868 0)
(10.037 0.0154635 0)
(10.0424 0.0150555 0)
(10.0475 0.0144176 0)
(10.0525 0.0135919 0)
(10.0572 0.0126131 0)
(10.0616 0.0115114 0)
(10.0657 0.0103144 0)
(10.0696 0.00904913 0)
(10.0732 0.00773756 0)
(10.0765 0.00642483 0)
(10.0002 0.00127511 0)
(10.0016 0.00368057 0)
(10.0045 0.00571766 0)
(10.0084 0.00726165 0)
(10.013 0.00832224 0)
(10.018 0.00896418 0)
(10.0231 0.00925161 0)
(10.0283 0.00923677 0)
(10.0335 0.00896842 0)
(10.0386 0.00849263 0)
(10.0435 0.00784852 0)
(10.0482 0.00706813 0)
(10.0526 0.00617836 0)
(10.0568 0.00520339 0)
(10.0608 0.00416497 0)
(10.0645 0.00308413 0)
(10.068 0.00197667 0)
(10.0712 0.000879491 0)
(10.0002 0.00044396 0)
(10.0014 0.00126645 0)
(10.004 0.00192216 0)
(10.0075 0.0023488 0)
(10.0117 0.00254567 0)
(10.0163 0.0025362 0)
(10.0211 0.0023465 0)
(10.026 0.00200024 0)
(10.0309 0.00152099 0)
(10.0357 0.000931561 0)
(10.0403 0.000252171 0)
(10.0448 -0.000499651 0)
(10.0491 -0.00130829 0)
(10.0531 -0.0021592 0)
(10.0569 -0.00303892 0)
(10.0605 -0.00393431 0)
(10.0639 -0.00483632 0)
(10.067 -0.00571711 0)
(10.0001 -0.0004779 0)
(10.0014 -0.0014151 0)
(10.0038 -0.00231694 0)
(10.0071 -0.00318022 0)
(10.0112 -0.00400108 0)
(10.0156 -0.00479022 0)
(10.0202 -0.00556183 0)
(10.025 -0.00632341 0)
(10.0297 -0.0070777 0)
(10.0343 -0.00782657 0)
(10.0388 -0.00857198 0)
(10.0432 -0.0093145 0)
(10.0473 -0.0100535 0)
(10.0513 -0.010787 0)
(10.055 -0.0115127 0)
(10.0585 -0.012227 0)
(10.0618 -0.0129285 0)
(10.0649 -0.0135997 0)
(10.0002 -0.0013508 0)
(10.0014 -0.00396401 0)
(10.004 -0.0063591 0)
(10.0075 -0.00845135 0)
(10.0117 -0.0102282 0)
(10.0163 -0.0117441 0)
(10.021 -0.0130552 0)
(10.0258 -0.0141963 0)
(10.0306 -0.0151954 0)
(10.0353 -0.0160819 0)
(10.0399 -0.0168809 0)
(10.0442 -0.0176106 0)
(10.0484 -0.018284 0)
(10.0523 -0.0189112 0)
(10.0561 -0.0194995 0)
(10.0596 -0.0200539 0)
(10.0628 -0.0205793 0)
(10.0659 -0.0210663 0)
(10.0002 -0.00209066 0)
(10.0016 -0.00615932 0)
(10.0043 -0.00985722 0)
(10.0083 -0.0129564 0)
(10.0129 -0.0154637 0)
(10.0177 -0.0175291 0)
(10.0227 -0.0192509 0)
(10.0277 -0.020669 0)
(10.0327 -0.0218285 0)
(10.0376 -0.0227872 0)
(10.0422 -0.0235941 0)
(10.0467 -0.0242839 0)
(10.0509 -0.0248819 0)
(10.0549 -0.0254082 0)
(10.0587 -0.0258779 0)
(10.0622 -0.0263022 0)
(10.0656 -0.0266902 0)
(10.0687 -0.0270384 0)
(10.0002 -0.00277449 0)
(10.0017 -0.00829235 0)
(10.0049 -0.0133232 0)
(10.0094 -0.0173385 0)
(10.0145 -0.0204194 0)
(10.0198 -0.0228976 0)
(10.0251 -0.0249268 0)
(10.0304 -0.0265469 0)
(10.0357 -0.0278189 0)
(10.0408 -0.0288209 0)
(10.0456 -0.0296155 0)
(10.0502 -0.0302473 0)
(10.0545 -0.0307531 0)
(10.0586 -0.0311633 0)
(10.0624 -0.0315017 0)
(10.066 -0.0317847 0)
(10.0694 -0.0320256 0)
(10.0725 -0.0322235 0)
(10.0001 -0.00338298 0)
(10.0017 -0.0104009 0)
(10.0055 -0.016774 0)
(10.0109 -0.0216178 0)
(10.0166 -0.025242 0)
(10.0223 -0.0281024 0)
(10.028 -0.0303266 0)
(10.0337 -0.0319991 0)
(10.0392 -0.0332638 0)
(10.0445 -0.0342386 0)
(10.0495 -0.0349891 0)
(10.0543 -0.0355594 0)
(10.0587 -0.0359902 0)
(10.0629 -0.0363168 0)
(10.0668 -0.0365656 0)
(10.0705 -0.0367554 0)
(10.0739 -0.0369009 0)
(10.0771 -0.0370075 0)
(10.0001 -0.00387168 0)
(10.0016 -0.0128924 0)
(10.0061 -0.0203217 0)
(10.0124 -0.0253847 0)
(10.0188 -0.0294429 0)
(10.025 -0.0329062 0)
(10.0312 -0.0355068 0)
(10.0373 -0.0372749 0)
(10.0431 -0.0384759 0)
(10.0486 -0.0393108 0)
(10.0538 -0.0398774 0)
(10.0587 -0.0402411 0)
(10.0633 -0.0404603 0)
(10.0675 -0.0405831 0)
(10.0716 -0.0406419 0)
(10.0753 -0.0406587 0)
(10.0788 -0.0406463 0)
(10.082 -0.0406018 0)
(9.9998 -0.00354912 0)
(10.0011 -0.016551 0)
(10.007 -0.0255218 0)
(10.0141 -0.0296955 0)
(10.0207 -0.0330169 0)
(10.0273 -0.0364717 0)
(10.0341 -0.0394034 0)
(10.0409 -0.04158 0)
(10.0473 -0.0431609 0)
(10.0532 -0.0442931 0)
(10.0587 -0.045057 0)
(10.0639 -0.0455273 0)
(10.0688 -0.0457807 0)
(10.0733 -0.0458818 0)
(10.0775 -0.0458782 0)
(10.0814 -0.0458031 0)
(10.0851 -0.0456825 0)
(10.0885 -0.045526 0)
(9.99829 2.5208e-07 0)
(9.99797 -0.0176199 0)
(10.0068 -0.0315036 0)
(10.0162 -0.0375884 0)
(10.0233 -0.0402855 0)
(10.0303 -0.0418365 0)
(10.0379 -0.0427921 0)
(10.0455 -0.0434864 0)
(10.0526 -0.0440864 0)
(10.0593 -0.0445996 0)
(10.0656 -0.0449932 0)
(10.0715 -0.0452789 0)
(10.077 -0.0454785 0)
(10.082 -0.0456199 0)
(10.0867 -0.0457173 0)
(10.091 -0.0457872 0)
(10.095 -0.0458348 0)
(10.0986 -0.045828 0)
(9.99413 0.00277652 0)
(9.98996 -0.00760078 0)
(10.0032 -0.0228599 0)
(10.0185 -0.0396803 0)
(10.0302 -0.0530714 0)
(10.0403 -0.0608426 0)
(10.0501 -0.0643786 0)
(10.0593 -0.065626 0)
(10.0677 -0.0657134 0)
(10.0756 -0.0650879 0)
(10.0829 -0.0640325 0)
(10.0897 -0.062737 0)
(10.0959 -0.0613642 0)
(10.1015 -0.0599944 0)
(10.1066 -0.0586928 0)
(10.1113 -0.0574886 0)
(10.1156 -0.0564077 0)
(10.1195 -0.0554027 0)
(9.9942 -0.0305074 0)
(9.99526 -0.0134573 0)
(10.0086 0.0215191 0)
(10.0272 0.0320172 0)
(10.047 0.0241427 0)
(10.0668 0.0116005 0)
(10.085 -0.000117516 0)
(10.1007 -0.0103333 0)
(10.1139 -0.0189732 0)
(10.125 -0.026046 0)
(10.1343 -0.0316467 0)
(10.1418 -0.0360182 0)
(10.1476 -0.0393918 0)
(10.1519 -0.0419848 0)
(10.1549 -0.0439607 0)
(10.1568 -0.0454887 0)
(10.1578 -0.0466982 0)
(10.1578 -0.0477346 0)
(10.0368 -0.209413 0)
(10.1083 -0.3659 0)
(10.1423 -0.352747 0)
(10.1567 -0.298036 0)
(10.1697 -0.247624 0)
(10.182 -0.206793 0)
(10.1884 -0.174356 0)
(10.1867 -0.148993 0)
(10.1774 -0.129275 0)
(10.1619 -0.113751 0)
(10.1413 -0.101354 0)
(10.1168 -0.0913247 0)
(10.0893 -0.0831311 0)
(10.0597 -0.076368 0)
(10.0287 -0.0707548 0)
(9.99682 -0.0661113 0)
(9.9646 -0.0622876 0)
(9.93271 -0.0595845 0)
(9.92866 0.765531 0)
(9.83924 0.742069 0)
(9.70533 0.52443 0)
(9.52634 0.348782 0)
(9.33184 0.227689 0)
(9.1406 0.146985 0)
(8.95878 0.0935811 0)
(8.78887 0.0579871 0)
(8.63226 0.0341222 0)
(8.48959 0.0181052 0)
(8.36022 0.00744035 0)
(8.24334 0.000462304 0)
(8.13778 -0.00408555 0)
(8.04247 -0.00693922 0)
(7.95631 -0.00861724 0)
(7.87831 -0.00955537 0)
(7.80712 -0.0100375 0)
(7.74237 -0.0106491 0)
(0.00585708 -0.0117402 -8.6614e-19)
(0.0192168 -0.0211018 7.07584e-19)
(0.0336862 -0.022837 0)
(0.0466254 -0.0197917 0)
(0.0557016 -0.0142638 0)
(0.0604191 -0.00789539 -4.36003e-19)
(0.0608597 -0.00176152 0)
(0.0574697 0.00341183 0)
(0.0511894 0.00731632 0)
(0.0427192 0.0100592 0)
(0.0326448 0.0119505 4.63938e-19)
(0.0214043 0.0133066 0)
(0.00925562 0.0143202 0)
(-0.00365963 0.0149832 0)
(-0.0173606 0.015382 0)
(-0.0319381 0.015773 4.29949e-19)
(-0.0474723 0.0162914 0)
(-0.064067 0.016977 0)
(-0.0818297 0.0178298 0)
(-0.100858 0.0188338 0)
(-0.121233 0.019966 0)
(-0.143012 0.0211982 0)
(-0.166232 0.0224987 0)
(-0.1909 0.0238332 2.23374e-19)
(-0.217001 0.0251693 -2.07522e-19)
(-0.244496 0.0264772 1.93188e-19)
(-0.273325 0.0277325 1.80245e-19)
(-0.303418 0.0289113 0)
(-0.334688 0.0299907 0)
(-0.367038 0.0309535 -1.48462e-19)
(-0.400359 0.0317919 -1.39855e-19)
(-0.434545 0.0325019 0)
(-0.469483 0.0330836 0)
(-0.505067 0.0335356 -1.18625e-19)
(-0.541193 0.0338594 0)
(-0.577764 0.0340584 0)
(-0.614695 0.0341418 1.02716e-19)
(-0.651906 0.0341239 0)
(-0.68933 0.0340274 9.42919e-20)
(-0.726907 0.0338764 1.81198e-19)
(-0.764582 0.0336996 0)
(-0.802305 0.0335207 0)
(-0.840106 0.0333556 0)
(-0.878 0.0331974 0)
(-0.915974 0.0330402 0)
(-0.954026 0.0328816 1.47067e-19)
(-0.992151 0.0327223 1.42668e-19)
(-1.03035 0.0325604 1.38547e-19)
(-1.06861 0.0323967 0)
(-1.10693 0.0322296 -1.31042e-19)
(-1.1453 0.0320596 0)
(-1.18372 0.0318849 1.2438e-19)
(-1.22217 0.0317059 1.21322e-19)
(-1.26065 0.0315205 0)
(-1.29914 0.0313286 0)
(-1.33763 0.0311275 0)
(-1.3761 0.0309172 1.10593e-19)
(-1.41455 0.0306951 0)
(-1.45294 0.0304611 0)
(-1.49125 0.0302122 0)
(-1.52947 0.0299486 0)
(-1.56757 0.0296677 0)
(-1.60552 0.0293695 0)
(-1.64329 0.0290511 0)
(-1.68085 0.0287129 0)
(-1.71818 0.0283522 -9.27186e-20)
(-1.75523 0.0279699 0)
(-1.79197 0.0275634 0)
(-1.82836 0.0271337 8.80769e-20)
(-1.86437 0.0266786 8.66362e-20)
(-1.89995 0.026199 0)
(-1.93506 0.0256928 -8.38941e-20)
(-1.96965 0.025161 8.25863e-20)
(-2.00369 0.0246017 0)
(-2.03713 0.0240164 -8.00814e-20)
(-2.06992 0.0234031 0)
(-2.10201 0.0227639 0)
(-2.13335 0.0220972 7.65606e-20)
(-2.1639 0.0214045 0)
(-2.1936 0.0206836 -7.43418e-20)
(-2.22241 0.0199366 0)
(-2.25026 0.0191615 7.22035e-20)
(-2.27711 0.0183596 7.11591e-20)
(-2.30291 0.0175285 7.01282e-20)
(-2.32761 0.0166694 1.38218e-19)
(-2.35114 0.0157791 -1.36198e-19)
(-2.37345 0.0148572 0)
(-2.39448 0.0138987 0)
(-2.41417 0.0128995 0)
(-2.43247 0.0118524 -1.28231e-19)
(-2.4493 0.0107483 -1.26249e-19)
(-2.46462 0.00957918 1.24263e-19)
(-2.47832 0.00833799 0)
(-2.49034 0.00702273 -1.20273e-19)
(-2.50057 0.00564248 -1.18266e-19)
(-2.50891 0.00422718 -1.16254e-19)
(-2.51524 0.00282382 0)
(-2.5194 0.00148151 0)
(-2.52128 0.000274484 0)
(-2.52142 -0.000821365 -1.07935e-19)
(-2.51976 -0.00189218 0)
(-2.51631 -0.00295799 0)
(-2.51107 -0.00402817 1.01169e-19)
(-2.50403 -0.00510321 0)
(-2.49515 -0.00618171 0)
(-2.48443 -0.00726313 9.38627e-20)
(-2.47185 -0.00834565 0)
(-2.4574 -0.0094281 0)
(-2.44107 -0.0105081 -8.5902e-20)
(-2.42288 -0.0115839 -8.30834e-20)
(-2.40281 -0.0126529 0)
(-2.38089 -0.0137127 7.7174e-20)
(-2.35712 -0.0147607 0)
(-2.33154 -0.0157939 -7.08749e-20)
(-2.30415 -0.01681 0)
(-2.27501 -0.0178055 -6.41549e-20)
(-2.24413 -0.0187777 -6.0628e-20)
(-2.21157 -0.0197226 0)
(-2.17737 -0.0206377 0)
(-2.14159 -0.021519 0)
(-2.10427 -0.0223645 0)
(-2.0655 -0.0231706 0)
(-2.02533 -0.0239371 0)
(-1.98384 -0.0246605 0)
(-1.94112 -0.0253423 -2.80029e-20)
(-1.89723 -0.0259794 2.33364e-20)
(-1.85226 -0.0265745 0)
(-1.80629 -0.0271206 0)
(-1.7594 -0.0276154 0)
(-1.7117 -0.0280537 0)
(-1.66326 -0.0284396 -4.1082e-21)
(-1.61419 -0.0287693 0)
(-1.56457 -0.0290409 2.63814e-20)
(-1.51451 -0.0292513 -3.79414e-20)
(-1.46409 -0.0294006 0)
(-1.41342 -0.0294866 0)
(-1.36259 -0.0295083 0)
(-1.3117 -0.0294649 8.69895e-20)
(-1.26083 -0.0293568 9.99487e-20)
(-1.21008 -0.0291884 0)
(-1.15954 -0.0289623 1.26691e-19)
(-1.10929 -0.0286826 1.40468e-19)
(-1.0594 -0.0283511 -1.5451e-19)
(-1.00995 -0.0279705 0)
(-0.960999 -0.0275421 0)
(-0.912601 -0.0270696 -1.98192e-19)
(-0.864808 -0.0265554 0)
(-0.81766 -0.0260051 0)
(-0.771191 -0.0254222 0)
(-0.725423 -0.024813 0)
(-0.68037 -0.024181 2.76019e-19)
(-0.636034 -0.0235335 2.92336e-19)
(-0.592409 -0.0228761 0)
(-0.549476 -0.0222182 3.25769e-19)
(-0.507204 -0.0215646 0)
(-0.465553 -0.020924 0)
(-0.424469 -0.0203038 3.78159e-19)
(-0.383886 -0.0197149 0)
(-0.343726 -0.0191631 4.14949e-19)
(-0.303902 -0.0186598 0)
(-0.264309 -0.0182168 0)
(-0.224836 -0.0178435 4.74144e-19)
(-0.185365 -0.0175475 0)
(-0.145738 -0.0173597 5.17518e-19)
(-0.105803 -0.0173167 0)
(-0.0654575 -0.0174248 0)
(-0.0246148 -0.017626 0)
(0.0167136 -0.0177181 -6.14903e-19)
(0.0577908 -0.0174444 0)
(0.099074 -0.017106 6.0281e-19)
(0.141683 -0.0170564 0)
(0.185859 -0.0172628 0)
(0.23201 -0.0176705 0)
(0.280427 -0.018217 0)
(0.331318 -0.0188376 0)
(0.384432 -0.0194059 0)
(0.439989 -0.0196532 0)
(0.493295 -0.0190128 -1.02473e-18)
(0.553123 -0.016161 0)
(0.561983 0.00142452 0)
(0.00766679 -0.0404048 1.97231e-18)
(0.0180162 -0.0471816 -1.15542e-18)
(0.0227903 -0.0385226 0)
(0.0238191 -0.0266447 3.70081e-19)
(0.0219081 -0.0141701 0)
(0.0174614 -0.00218763 1.49205e-19)
(0.0108956 0.00860147 -2.8622e-19)
(0.00237772 0.0177476 -2.79148e-19)
(-0.00813118 0.0251057 0)
(-0.0205769 0.0308433 -2.61561e-19)
(-0.0348768 0.0352984 -1.26203e-19)
(-0.0509284 0.0388531 0)
(-0.068648 0.0418474 0)
(-0.0879348 0.0445398 0)
(-0.108655 0.0471298 0)
(-0.130733 0.0497696 -1.05249e-19)
(-0.154151 0.0525461 0)
(-0.178895 0.0554845 1.95479e-19)
(-0.204939 0.0585655 0)
(-0.232249 0.0617435 0)
(-0.260776 0.0649602 -1.744e-19)
(-0.290456 0.0681531 0)
(-0.32121 0.0712605 1.61188e-19)
(-0.352949 0.0742247 -7.75529e-20)
(-0.385574 0.076996 7.45266e-20)
(-0.41898 0.0795338 -7.16302e-20)
(-0.453062 0.0818107 -6.88694e-20)
(-0.487712 0.0838121 0)
(-0.522829 0.0855295 0)
(-0.558317 0.086955 6.14116e-20)
(-0.594091 0.0880845 -5.90312e-20)
(-0.630072 0.0889277 0)
(-0.66619 0.0895057 0)
(-0.702385 0.0898421 5.33648e-20)
(-0.738612 0.0899623 0)
(-0.774833 0.0898911 0)
(-0.811024 0.0896548 -4.85287e-20)
(-0.847175 0.0892787 0)
(-0.88328 0.0887915 4.56368e-20)
(-0.91934 0.0882239 -8.91045e-20)
(-0.955354 0.0876096 0)
(-0.991319 0.0869784 0)
(-1.02723 0.0863474 -1.64724e-19)
(-1.06307 0.0857162 -1.60813e-19)
(-1.09883 0.0850835 -1.5711e-19)
(-1.13452 0.0844475 7.66399e-20)
(-1.17012 0.083808 -7.52886e-20)
(-1.20564 0.0831629 -2.20786e-19)
(-1.24108 0.0825115 1.44059e-19)
(-1.27642 0.081851 7.07456e-20)
(-1.31167 0.0811803 0)
(-1.34681 0.0804964 -6.80472e-20)
(-1.38183 0.0797978 6.6466e-20)
(-1.41673 0.0790812 0)
(-1.45149 0.0783447 0)
(-1.4861 0.0775841 0)
(-1.52054 0.0767976 -6.22097e-20)
(-1.5548 0.0759814 0)
(-1.58884 0.0751334 1.20029e-19)
(-1.62266 0.0742497 0)
(-1.65624 0.0733289 1.16226e-19)
(-1.68954 0.0723674 0)
(-1.72254 0.071364 -1.12663e-19)
(-1.75521 0.0703149 0)
(-1.78753 0.0692195 1.09309e-19)
(-1.81947 0.0680744 -5.37078e-20)
(-1.85099 0.0668796 0)
(-1.88207 0.0656324 -1.04613e-19)
(-1.91267 0.0643333 -5.16982e-20)
(-1.94276 0.0629796 -5.09679e-20)
(-1.9723 0.0615723 0)
(-2.00125 0.0601091 -4.92964e-20)
(-2.02958 0.058591 -4.88639e-20)
(-2.05726 0.0570162 0)
(-2.08424 0.0553861 4.75211e-20)
(-2.11049 0.0536994 -9.35002e-20)
(-2.13596 0.0519584 0)
(-2.16062 0.0501623 -4.55737e-20)
(-2.18442 0.0483132 0)
(-2.20732 0.0464095 1.32726e-19)
(-2.22929 0.0444538 0)
(-2.25027 0.0424451 -1.28991e-19)
(-2.27022 0.0403857 -4.24334e-20)
(-2.28911 0.0382745 4.16558e-20)
(-2.30689 0.0361147 8.20899e-20)
(-2.32351 0.0339054 -8.08669e-20)
(-2.33894 0.0316496 0)
(-2.35313 0.0293459 0)
(-2.36603 0.0269952 0)
(-2.37761 0.0245951 2.28109e-19)
(-2.38784 0.0221425 7.4807e-20)
(-2.39667 0.0196341 -7.35077e-20)
(-2.40409 0.0170657 0)
(-2.41006 0.014432 -7.08182e-20)
(-2.4146 0.0117282 6.95173e-20)
(-2.41772 0.00896211 6.81565e-20)
(-2.41949 0.0061672 0)
(-2.41999 0.00340855 0)
(-2.41935 0.000776313 0)
(-2.41713 -0.00174378 6.24216e-20)
(-2.41326 -0.00422604 0)
(-2.40767 -0.00668724 -1.1893e-19)
(-2.40034 -0.00913573 -1.73622e-19)
(-2.39124 -0.0115714 1.1266e-19)
(-2.38035 -0.0139904 0)
(-2.36764 -0.0163889 5.32415e-20)
(-2.35312 -0.0187612 0)
(-2.33678 -0.0211028 9.93384e-20)
(-2.3186 -0.0234079 -4.81502e-20)
(-2.2986 -0.0256715 -4.63805e-20)
(-2.27677 -0.0278877 0)
(-2.25314 -0.0300512 -1.26996e-19)
(-2.22771 -0.0321558 8.10505e-20)
(-2.20052 -0.034196 3.82423e-20)
(-2.17158 -0.0361661 0)
(-2.14094 -0.0380605 3.41927e-20)
(-2.10862 -0.0398742 9.71257e-20)
(-2.07468 -0.0416015 0)
(-2.03917 -0.0432375 5.65295e-20)
(-2.00213 -0.0447762 5.21716e-20)
(-1.96363 -0.0462135 4.77397e-20)
(-1.92373 -0.0475444 0)
(-1.88251 -0.0487679 0)
(-1.84003 -0.0498808 0)
(-1.79639 -0.0508869 -1.52006e-20)
(-1.75167 -0.0517902 -1.17282e-20)
(-1.70593 -0.0525927 0)
(-1.65929 -0.0532726 -1.48877e-20)
(-1.6118 -0.0538348 -9.98034e-21)
(-1.56357 -0.0542906 0)
(-1.51468 -0.0546392 1.15891e-21)
(-1.46523 -0.0548731 9.9253e-21)
(-1.41531 -0.0549964 -1.12309e-20)
(-1.36502 -0.0550071 -1.38133e-20)
(-1.31444 -0.0549083 0)
(-1.26367 -0.0547007 0)
(-1.21281 -0.0543879 0)
(-1.16194 -0.0539718 -3.65671e-20)
(-1.11115 -0.0534575 3.91443e-20)
(-1.06052 -0.0528524 9.08161e-20)
(-1.01014 -0.0521664 -5.1621e-20)
(-0.960085 -0.0514088 5.41895e-20)
(-0.910429 -0.0505883 6.1484e-20)
(-0.861234 -0.0497107 0)
(-0.812556 -0.0487842 0)
(-0.764441 -0.0478153 -7.36807e-20)
(-0.716932 -0.0468139 0)
(-0.67006 -0.045787 0)
(-0.623847 -0.0447458 1.77245e-19)
(-0.578307 -0.0436986 0)
(-0.533442 -0.0426571 9.64894e-20)
(-0.489242 -0.0416286 -1.02549e-19)
(-0.445688 -0.0406261 0)
(-0.402749 -0.0396588 1.09032e-19)
(-0.36038 -0.0387395 0)
(-0.318526 -0.0378746 0)
(-0.277115 -0.0370791 -1.21883e-19)
(-0.236066 -0.0363611 2.49527e-19)
(-0.19528 -0.035732 -1.2877e-19)
(-0.154644 -0.0351991 0)
(-0.11403 -0.0347813 0)
(-0.0732983 -0.0344826 1.37313e-19)
(-0.0322955 -0.0343116 0)
(0.00913966 -0.0342701 1.4318e-19)
(0.0509848 -0.0342942 0)
(0.0934739 -0.0343791 0)
(0.137003 -0.0345572 0)
(0.181925 -0.0347464 1.45121e-19)
(0.228643 -0.0349923 0)
(0.277417 -0.0355124 -1.44994e-19)
(0.328328 -0.0363934 0)
(0.381525 -0.0375695 0)
(0.437196 -0.0389566 2.89633e-19)
(0.495466 -0.0404515 -2.89958e-19)
(0.556334 -0.0419098 0)
(0.619432 -0.0430969 0)
(0.684523 -0.0434975 0)
(0.748347 -0.0422661 8.87825e-19)
(0.815543 -0.0362951 0)
(0.855776 -0.0151189 -6.19848e-19)
(0.00328591 -0.0595589 -7.38965e-22)
(0.00459072 -0.0522692 1.16139e-18)
(0.00115149 -0.034252 0)
(-0.00493597 -0.0165 -4.95328e-19)
(-0.0129456 1.311e-05 0)
(-0.0224861 0.0151135 0)
(-0.0333752 0.0286763 5.58653e-23)
(-0.045589 0.0406107 1.53395e-19)
(-0.0591876 0.050899 1.4647e-19)
(-0.0742473 0.0596431 1.41229e-19)
(-0.0908226 0.0670642 0)
(-0.108929 0.0734554 0)
(-0.128546 0.0791215 -1.28937e-19)
(-0.149618 0.0843381 -2.50718e-19)
(-0.172065 0.0893191 2.43773e-19)
(-0.195799 0.0942007 0)
(-0.220722 0.0990544 2.30243e-19)
(-0.246734 0.103896 -1.11898e-19)
(-0.273732 0.1087 0)
(-0.301611 0.113414 2.10548e-19)
(-0.330266 0.117974 1.02175e-19)
(-0.359595 0.122311 -1.9789e-19)
(-0.389498 0.126363 -9.59659e-20)
(-0.419879 0.130075 0)
(-0.450651 0.133404 1.79979e-19)
(-0.481733 0.136322 1.74381e-19)
(-0.513056 0.138807 0)
(-0.544556 0.140854 1.63801e-19)
(-0.576174 0.142467 0)
(-0.60786 0.143667 1.53952e-19)
(-0.63958 0.14448 7.47313e-20)
(-0.671317 0.144937 0)
(-0.703056 0.145073 0)
(-0.734789 0.144925 0)
(-0.766512 0.144533 0)
(-0.798225 0.143935 0)
(-0.829932 0.143167 0)
(-0.861637 0.142265 1.23106e-19)
(-0.893346 0.141261 -1.80242e-19)
(-0.925064 0.140185 0)
(-0.956789 0.139065 0)
(-0.988519 0.13792 0)
(-1.02024 0.136764 1.49149e-22)
(-1.05196 0.135603 1.07432e-19)
(-1.08365 0.134438 2.10288e-19)
(-1.11533 0.133269 -2.06061e-19)
(-1.14697 0.132096 -1.00927e-19)
(-1.17859 0.130916 9.91549e-20)
(-1.21017 0.129727 -1.6816e-22)
(-1.24171 0.128526 9.53453e-20)
(-1.27319 0.127309 0)
(-1.30462 0.126073 9.19778e-20)
(-1.33598 0.124812 -1.75398e-22)
(-1.36725 0.123523 0)
(-1.39844 0.122202 0)
(-1.42951 0.120843 -8.59364e-20)
(-1.46047 0.119442 0)
(-1.49128 0.117995 0)
(-1.52193 0.116497 8.17251e-20)
(-1.55241 0.114945 1.61277e-19)
(-1.58268 0.113334 -7.95857e-20)
(-1.61273 0.11166 0)
(-1.64254 0.109922 7.72226e-20)
(-1.67207 0.108114 0)
(-1.7013 0.106235 7.46325e-20)
(-1.73021 0.104282 7.38896e-20)
(-1.75876 0.102253 -1.45321e-19)
(-1.78693 0.100146 -7.14584e-20)
(-1.81468 0.0979592 0)
(-1.84199 0.0956918 1.39211e-19)
(-1.86881 0.0933431 0)
(-1.89511 0.0909118 2.03119e-19)
(-1.92086 0.088398 1.33405e-19)
(-1.94603 0.0858008 1.31524e-19)
(-1.97057 0.083121 -1.29665e-19)
(-1.99445 0.0803585 1.91873e-19)
(-2.01763 0.0775149 0)
(-2.04007 0.0745904 0)
(-2.06174 0.0715865 -1.22397e-19)
(-2.08258 0.0685036 -1.81028e-19)
(-2.10256 0.0653437 0)
(-2.12164 0.0621073 5.86273e-20)
(-2.13978 0.0587965 0)
(-2.15694 0.0554123 -1.70339e-19)
(-2.17307 0.0519573 -1.63018e-22)
(-2.18814 0.0484329 1.48644e-22)
(-2.2021 0.044842 1.08147e-19)
(-2.21491 0.041186 0)
(-2.22654 0.0374672 -1.04533e-19)
(-2.23694 0.0336874 -8.57495e-23)
(-2.24609 0.029849 0)
(-2.25396 0.0259563 0)
(-2.26052 0.0220167 0)
(-2.26576 0.0180414 9.52448e-20)
(-2.26965 0.0140464 0)
(-2.27219 0.0100538 0)
(-2.27335 0.00608671 0)
(-2.27309 0.00215738 0)
(-2.27134 -0.00176037 0)
(-2.26801 -0.00568585 8.31533e-20)
(-2.26307 -0.00960695 0)
(-2.25648 -0.0135166 7.86785e-20)
(-2.24819 -0.0174094 7.64468e-20)
(-2.2382 -0.0212788 -7.41802e-20)
(-2.22648 -0.0251174 0)
(-2.21301 -0.0289171 -6.95382e-20)
(-2.19779 -0.0326693 0)
(-2.1808 -0.0363656 -6.47457e-20)
(-2.16205 -0.039997 6.22916e-20)
(-2.14153 -0.0435546 1.80091e-19)
(-2.11925 -0.0470293 0)
(-2.09523 -0.0504117 1.64878e-19)
(-2.06949 -0.0536926 5.29278e-20)
(-2.04203 -0.0568627 0)
(-2.01291 -0.0599129 9.44385e-20)
(-1.98214 -0.0628345 8.9039e-20)
(-1.94976 -0.065619 -1.24833e-19)
(-1.91583 -0.0682584 0)
(-1.88039 -0.0707443 -3.56461e-20)
(-1.84349 -0.0730689 -3.27885e-20)
(-1.80519 -0.0752251 -9.09117e-20)
(-1.76557 -0.0772072 0)
(-1.72468 -0.0790115 0)
(-1.6826 -0.0806353 0)
(-1.63942 -0.0820781 -1.94596e-20)
(-1.59522 -0.0833451 0)
(-1.55007 -0.0844458 0)
(-1.50407 -0.0853626 9.09462e-21)
(-1.4573 -0.0860867 6.0745e-21)
(-1.40983 -0.0866349 0)
(-1.36176 -0.0870109 0)
(-1.31318 -0.0872096 -5.97348e-21)
(-1.26418 -0.0872329 0)
(-1.21484 -0.0870818 1.79821e-20)
(-1.16525 -0.0867598 2.24288e-20)
(-1.1155 -0.0862709 0)
(-1.06569 -0.0856211 0)
(-1.01589 -0.0848162 -4.00591e-20)
(-0.966185 -0.0838653 -1.49025e-21)
(-0.916651 -0.0827803 -1.47568e-21)
(-0.867363 -0.0815758 0)
(-0.818395 -0.080266 -1.26901e-19)
(-0.76981 -0.0788647 0)
(-0.721664 -0.0773831 0)
(-0.674006 -0.0758346 0)
(-0.626876 -0.0742314 8.53516e-20)
(-0.580305 -0.0725884 0)
(-0.534317 -0.0709179 -1.8806e-19)
(-0.488925 -0.0692367 -1.00044e-19)
(-0.444133 -0.0675587 0)
(-0.399933 -0.0659011 -1.09179e-19)
(-0.356307 -0.0642763 0)
(-0.313226 -0.0627028 0)
(-0.270648 -0.0611953 -3.6346e-19)
(-0.22852 -0.0597718 2.49569e-19)
(-0.186775 -0.058444 0)
(-0.145332 -0.057232 2.64422e-19)
(-0.104098 -0.0561494 -1.36425e-19)
(-0.0629649 -0.0552131 0)
(-0.0218074 -0.054433 0)
(0.0194973 -0.0538241 0)
(0.0610613 -0.0533843 -4.41142e-19)
(0.103075 -0.0531315 0)
(0.145757 -0.0530683 -1.49668e-19)
(0.189322 -0.0532089 0)
(0.234018 -0.053583 0)
(0.280078 -0.0541883 0)
(0.327796 -0.054993 0)
(0.377513 -0.0560393 0)
(0.429501 -0.0574207 0)
(0.483882 -0.0591759 -3.08007e-19)
(0.540778 -0.0612614 0)
(0.600299 -0.0635768 -1.55804e-19)
(0.662485 -0.0659776 4.69323e-19)
(0.727265 -0.0682544 0)
(0.794272 -0.0700566 0)
(0.863236 -0.0707138 -3.20347e-19)
(0.931768 -0.0690727 -3.25679e-19)
(1.00377 -0.0619848 3.30935e-19)
(1.06089 -0.041396 3.41818e-19)
(-0.00290633 -0.0587824 -2.99089e-18)
(-0.00890451 -0.0399761 -1.39334e-18)
(-0.0177582 -0.0172993 -5.24528e-19)
(-0.0285338 0.00350063 -1.86851e-19)
(-0.0404861 0.0224152 0)
(-0.0532958 0.0396497 2.64437e-19)
(-0.0669413 0.055287 -1.20497e-19)
(-0.0814839 0.069352 0)
(-0.0970101 0.0818877 -1.07574e-19)
(-0.113611 0.0929961 0)
(-0.131361 0.102844 2.00279e-19)
(-0.150299 0.111644 0)
(-0.17042 0.11962 9.46196e-20)
(-0.191685 0.126979 1.84183e-19)
(-0.214021 0.133887 -1.79276e-19)
(-0.237336 0.140456 0)
(-0.261522 0.146749 -1.69707e-19)
(-0.286467 0.152783 0)
(-0.312059 0.158539 0)
(-0.338192 0.16398 -1.55814e-19)
(-0.364766 0.169058 0)
(-0.391693 0.173725 5.05213e-23)
(-0.418894 0.177939 0)
(-0.446302 0.181668 0)
(-0.47386 0.184892 -3.69986e-23)
(-0.501522 0.187602 -1.30476e-19)
(-0.529252 0.189802 -1.26645e-19)
(-0.557024 0.191502 -1.23022e-19)
(-0.584822 0.192726 0)
(-0.612641 0.193508 -2.3241e-19)
(-0.64048 0.193891 0)
(-0.668339 0.193919 -1.10033e-19)
(-0.696222 0.193633 0)
(-0.724135 0.193076 0)
(-0.752087 0.192288 1.01853e-19)
(-0.780084 0.191311 0)
(-0.808133 0.190179 -9.70426e-20)
(-0.83624 0.188926 -3.65277e-23)
(-0.864409 0.18758 1.85413e-19)
(-0.892641 0.186166 -1.81318e-19)
(-0.920934 0.184705 0)
(-0.949283 0.183215 0)
(-0.977682 0.181705 -8.50375e-20)
(-1.00612 0.180181 0)
(-1.0346 0.178648 -8.18136e-20)